material_id,formula,band_gap,e_hull,formation_energy
mp-760376,KTiO3,0.0,0.08944756050000101,-2.662460197116666
mp-1111155,KTlBr3,0.9246000000000001,0.07723567325000101,-1.342039624116668
mp-1111296,KTlCl3,1.097,0.059074320500001005,-1.582047443116668
mp-1111295,KTlF3,1.9647000000000001,0.05428418670833501,-2.438736394116667
mp-1110822,KTlI3,0.0,0.11789555600000001,-0.9732104541166681
mp-984454,KTlO3,0.0,0.34001642800000004,-0.7949232771166671
mp-1211295,KTmBr3,0.0,0.17825768566666603,-1.818286347450001
mp-570303,KTmI3,0.0,0.12858335099999801,-1.403376805450001
mp-1184949,KTmO3,0.0,0.254353999833333,-2.350256552450001
mp-4126,KUO3,0.4454,0.0,-3.335109890449998
mp-1205604,KVCl3,0.33420000000000005,0.0,-1.83589193925
mp-557257,KVF3,2.075899999999999,0.0,-3.03907132245
mp-1076633,KVO3,0.21860000000000002,0.21691129050000002,-2.18975995645
mp-18815,KVO3,3.046,0.0,-2.406671246950001
mp-1040472,KWO3,0.0,0.067683724833328,-2.13368859445
mp-1184945,KYO3,0.0,0.27819480691666604,-2.258839532449999
mp-1206621,KYbI3,3.6306000000000003,0.08784997199998301,-1.365235154250001
mp-1184953,KYbO3,0.0,0.430134396499999,-2.138255775000002
mp-5878,KZnF3,3.6954000000000002,0.0,-2.8123817304500003
mp-1184946,KZnO3,0.0,0.37669413450000105,-0.938129754449999
mp-1184950,KZrO3,0.0,0.069763034333333,-2.795012398449999
mp-10600,La3AlC,0.0,0.034530171499998,-0.283068273499998
mp-4505,La3AlN,0.0,0.0,-0.9010594967499971
mp-1206996,La3AlO,0.0,0.0,-1.473911112000002
mp-20590,La3InB,0.0,0.20274191400000002,-0.258075917374992
mp-29056,La3InC,0.0,0.0,-0.47444109899999704
mp-1224015,La3InGe,0.0,0.0,-0.743515690749995
mp-20999,La3InN,0.0,0.0,-1.058575106749995
mp-1206443,La3SnC,0.0,0.0,-0.624586847
mp-1206994,La3SnN,0.0,0.0,-1.172514944749997
mp-7159,La3TlC,0.0,0.0,-0.289061296666668
mp-1076000,LaAgO3,0.0,0.239231050083332,-1.886074956333334
mp-768308,LaAgO3,0.0,0.036711941083333005,-2.088594065333333
mp-1069603,LaAl3Au,0.0,0.0,-0.6605854510000011
mp-1070573,LaAl3Cu,0.0,0.0,-0.5198575469999991
mp-1080060,LaAlO3,3.7121,0.0,-3.722466562999999
mp-1080080,LaAlO3,3.519299999999999,0.00039899899999700005,-3.722067564000001
mp-2920,LaAlO3,4.0189,0.000273196999998,-3.722193366
mp-5304,LaAlO3,3.4924,0.003053424999999,-3.719413138
mp-696871,LaAlO3,3.581899999999999,0.22833477899999902,-3.4941317840000012
mp-768417,LaAlO3,4.4431,0.031164611333331003,-3.6913019516666683
mp-768518,LaAlO3,4.6067,0.053214263666667004,-3.669252299333332
mp-771698,LaAlO3,4.4777000000000005,0.057118826749999005,-3.6653477362499993
mp-771703,LaAlO3,4.1704,0.042760157666664,-3.679706405333334
mp-780411,LaAlO3,4.468500000000001,0.09316856266666501,-3.629298000333334
mp-780421,LaAlO3,4.269299999999999,0.082640372999998,-3.639826190000001
mp-780422,LaAlO3,4.2491,0.035810256333331,-3.6866563066666673
mp-1079050,LaAsO3,2.692999999999999,0.0,-2.863692102500001
mp-28853,LaAuO3,1.797699999999999,0.0,-2.314873115500002
mp-675030,TiNiO3,2.3354,0.020319030499999002,-2.576398636166666
mp-690546,TiNiO3,2.2715,0.018407698333332,-2.578309968333334
mp-698587,TiNiO3,1.708199999999999,0.020012813999999,-2.576704852666667
mp-850194,TiNiO3,0.0,0.013952144999999002,-2.582765521666667
mp-989613,TiPN3,0.528199999999999,0.030168741333332003,-1.026880931345239
mp-989624,TiPN3,0.5396000000000001,0.0,-1.057049672678572
mp-996940,TiReN3,0.0,0.08140965366666801,-0.719383345166662
mp-1018639,TiSnO3,1.0452,0.16012544749999602,-2.5965887846666673
mp-754246,TiSnO3,1.1086,0.0021027584999990002,-2.754611473666665
mp-1216763,TiVO3,0.0,0.0,-3.029616557666668
mp-753428,TiVO3,0.0,0.088556243500001,-2.941060314166667
mp-755657,TiVO3,0.0,0.029407818000001,-3.000208739666667
mp-1246544,TiWN3,0.0,0.300235536499997,-0.7554838342083341
mp-1078470,TiZnO3,2.8280000000000003,0.055374115499997004,-2.765818800666667
mp-1343137,TiZnO3,0.0,0.104184631499997,-2.717008284666666
mp-14142,TiZnO3,3.106999999999999,0.028635328499998003,-2.792557587666666
mp-635713,TiZnO3,3.1234,0.09579140549999801,-2.725401510666666
mp-998154,TlAgBr3,0.0,0.05566522574999801,-0.813689626000001
mp-998608,TlAgBr3,0.0,0.048820565749998004,-0.8205342860000011
mp-2763542,TlAgCl3,0.0,0.00919353499999,-0.769443778499999
mp-998610,TlAgCl3,0.0,0.015710949000003003,-1.011150190999998
mp-998748,TlAgCl3,0.0,0.016439926,-1.010421214000001
mp-1400626,TlAgF3,0.0,0.014893152999999002,-1.608294547875004
mp-2763000,TlAgF3,0.0,0.031785883875002,-1.5914018170000022
mp-998152,TlAgF3,0.0,0.016307282999999,-1.606880417875004
mp-28809,TlBS3,1.8034000000000001,0.006876568249995001,-0.6738856875000001
mp-29959,TlBSe3,0.9154,0.0,-0.297648988937498
mp-1179184,TlBrO3,0.054200000000000005,0.48937173124999905,-0.16019449066666802
mp-29798,TlBrO3,3.5098000000000003,0.0072877472499990005,-0.6422784746666681
mp-28219,TlCdBr3,2.7489,0.0026325564999990004,-1.193658168166667
mp-28218,TlCdCl3,3.2976,0.0,-1.434297047166665
mp-1412222,TlCdF3,4.1944,0.009239022999999002,-2.221172677999999
mp-998623,TlCdF3,4.2415,0.006402660999999,-2.224009039999998
mp-998759,TlCdF3,3.9371,0.0,-2.230411701
mp-27252,TlCdI3,2.1776,0.016685705522220002,-0.826551342166668
mp-29738,TlClO3,4.3481,0.061993026555557,-0.720069275666668
mp-2353285,TlCoCl3,0.20249999999999901,0.004752210999998,-1.120604813666668
mp-567430,TlCoCl3,0.0,0.125723563333331,-0.9996334613333341
mp-567620,TlCoCl3,0.0,0.008190491999998,-1.117166532666668
mp-569753,TlCoCl3,0.0,0.010600803999996002,-1.11475622066667
mp-998160,TlCoF3,0.0,0.19647911349999703,-1.993014821666668
mp-755788,TlCoO3,0.464,0.06708455771428401,-1.098110242666668
mp-756464,TlCoO3,0.0,0.09027498721428401,-1.074919813166668
mp-770614,TlCoO3,0.14299999999999902,0.10151643371428501,-1.063678366666668
mp-1105306,TlCrO3,0.43460000000000004,0.039864296500002006,-1.6936482416666672
mp-1105457,TlCuCl3,0.41430000000000006,0.001393829499997,-1.079016908166669
mp-998147,TlCuCl3,0.0,0.028916596499996002,-1.051494141166669
mp-554973,TlCuF3,0.0,0.003841090000001,-1.861619619999999
mp-1187483,TlCuO3,0.0,0.31950305712499905,-0.656654345666667
mp-504821,TlFeBr3,0.0,0.053698422166666,-0.920841691166668
mp-568553,TlFeBr3,0.0,0.12689998366666602,-0.847640129666668
mp-998159,TlFeF3,3.4393000000000002,0.27134249849999703,-2.067485199666668
mp-23415,TlFeI3,0.0,0.14724678799999802,-0.41113109366666806
mp-505819,TlFeO3,0.7036999999999991,0.047280969999999006,-1.356483360166667
mp-1187481,TlGaO3,0.0,0.43010489099999805,-1.254612097166667
mp-756909,TlGaO3,0.932299999999999,0.06959211999999801,-1.6151248681666681
mp-998153,TlGeBr3,0.755599999999999,0.027999737999999,-0.998766736666667
mp-998746,TlGeBr3,2.256599999999999,0.0,-1.026766474666667
mp-2037716,TlGeCl3,2.8898,0.0,-0.9864945005000011
mp-998743,TlGeCl3,3.3207,0.0,-1.284060811666667
mp-998744,TlGeCl3,1.3779,0.032765105999999,-1.251295705666668
mp-998711,TlGeF3,3.3593,0.05515826299999901,-2.134181383
mp-998712,TlGeF3,3.1344,0.027987879000001003,-2.161351766999996
mp-29288,TlGeI3,1.9161000000000001,0.016987145333331,-0.686466422666667
mp-1187533,TlGeO3,0.0,0.357614411562501,-1.3662863706666681
mp-1068746,TlHPd3,0.0,0.0,-0.27469800174999903
mp-1105094,TlHgCl3,2.6710000000000003,0.0,-1.14219509716667
mp-998710,TlHgF3,1.8050000000000002,0.014525399499998001,-1.6856808355000021
mp-998758,TlHgF3,2.3394,0.0,-1.700206235000001
mp-22981,TlIO3,2.763299999999999,0.0,-0.968889334666667
mp-546200,TlIO3,0.0,0.243994853999999,-0.7248944806666681
mp-2767078,TlInCl3,2.5745,0.0,-1.159147515499998
mp-998713,TlInCl3,1.559699999999999,0.0070095395,-1.374226712000001
mp-998732,TlInCl3,0.0,0.067156955500001,-1.314079296000001
mp-557704,TlNO3,2.8695,0.004367245666667001,-0.983139618000001
mp-5915,TlNO3,2.8457,0.0,-0.9875068636666691
mp-1205652,TlNiCl3,0.5372,0.004469158999999,-1.147841884666667
mp-998761,TlNiF3,3.4347,0.000827895,-2.109648550000003
mp-1097917,TlNiO3,0.0,0.365980831666666,-0.672721187666667
mp-1178989,TlNiO3,0.0965,0.075435137166667,-0.9632668821666671
mp-1403003,TlNiO3,0.0,0.365913223666666,-0.672788795666667
mp-18001,TlNiO3,0.0,0.07410190116666701,-0.964600118166667
mp-998781,TlNiO3,0.0,0.304644191666666,-0.734057827666668
mp-998845,TlNiO3,0.0,0.102388402666666,-0.9363136166666671
mp-27144,TlPO3,3.6726,0.0,-2.257728706095238
mp-556932,TlPO3,3.725,0.012447569749997,-2.24528113634524
mp-8249,TlPS3,1.7362000000000002,0.0,-0.6252910000952391
mp-998786,TlPdF3,0.0,0.0,-1.592664701999999
mp-30058,TlSbO3,2.4362,0.0007310490000000001,-1.711936398666663
mp-557787,TlSbO3,2.436499999999999,0.0,-1.712667447666664
mp-561465,TlSbO3,2.1502,0.134767325499995,-1.577900122166668
mp-676130,TlSnF3,2.8207,0.0,-2.216028051500001
mp-1205533,TlSnI3,1.8624,0.0,-0.8054596336666701
mp-1187623,TlTcO3,0.0,0.035979122291665,-1.501989770666668
mp-1206817,TlVCl3,0.27340000000000003,0.0033166549999980002,-1.464884696666667
mp-22330,TlVO3,2.9763,0.006314270642858001,-2.008665790166668
mp-1187621,TlWO3,0.0,0.15775196400000202,-1.642345367666667
mp-998745,TlZnF3,3.9179,0.0,-2.328041165000002
mp-1018641,Tm3AlN,0.0,0.0,-1.124935117750001
mp-19847,Tm3InN,0.0,0.0,-1.224040253750001
mp-1101265,TmAlO3,3.5534,0.07630096770000101,-3.718722775000002
mp-756281,TmAlO3,6.078899999999999,0.019079384200002002,-3.775944358500001
mp-17620,TmBO3,2.3645,0.318168113600002,-3.200776610833335
mp-760484,TmBO3,4.5062,0.030025047600002002,-3.4889196768333353
mp-10134,TmBPd3,0.0,0.11403531081818401,-0.673166220045456
mp-5438,TmBRh3,0.0,0.0,-0.822294699833335
mp-972395,TmBeO3,0.0,0.40141804875000003,-2.8847607240000013
mp-754323,TmBiO3,3.1128,0.030020340250001002,-2.835879719000002
mp-755216,TmBiO3,2.441799999999999,0.053846769250002,-2.812053290000001
mp-1216578,TmBiTe3,1.1145,0.023780685750004003,-0.9306508277499971
mp-561954,TmCoO3,1.188599999999999,0.022681563464287003,-2.637331035000001
mp-1187577,TmCrO3,1.9288999999999992,0.39895016849999704,-2.848458345000002
mp-777295,TmCrO3,2.6809000000000003,0.0,-3.2474085135
mp-20651,TmFeO3,1.6368,0.024305635250000002,-2.874276493000002
mp-558400,TmFeO3,0.0,0.009748756583332002,-2.888833371666667
mp-1207932,TmGa3Os,0.0,0.0,-0.557037808000003
mp-17424,TmGa3Ru,0.0,0.0,-0.578806804499999
mp-1101269,TmGaO3,2.4668,0.028288575600001004,-3.181510882500001
mp-754578,TmGaO3,3.9298,0.05087532610000001,-3.158924132000001
mp-768469,TmGaO3,2.9311,0.0064111949333330006,-3.20338826316667
mp-1101263,TmInO3,2.525899999999999,0.08634727724999901,-2.955722868333334
mp-1232191,TmMgS3,0.2669,0.326130793599998,-1.5482208590000002
mp-1232251,TmMgS3,0.0,0.23620253676666403,-1.638149115833333
mp-1238772,TmMgS3,0.0,0.361825811099998,-1.5125258415
mp-1232151,TmMgSe3,0.0,0.327320873749999,-1.381498284406251
mp-1232198,TmMgSe3,0.0,0.208420617749998,-1.500398540406251
mp-554211,TmMnO3,0.0,0.0,-3.098161968586209
mp-554270,TmMnO3,2.007599999999999,0.041078848500001,-3.057083120086209
mp-1079044,TmNiGe3,0.0,0.005338511499999,-0.537241431
mp-1106304,TmNiO3,0.0,0.006301209416666001,-2.527218608000002
mp-19002,TmNiO3,0.0,0.006808182416667001,-2.526711635000001
mp-10714,TmRh3C,0.0,0.0,-0.538234423000005
mp-1207705,TmRhO3,0.9564999999999991,0.0,-2.607933880000002
mp-1206773,TmRu3C,0.0,0.0,-0.25931206100000204
mp-1207696,TmScO3,4.4168,0.049329876624998006,-3.980072895500001
mp-768396,TmSeO3,1.819,0.021720093632812,-2.542680966468751
mp-755525,TmTiO3,0.0,0.06115532024998001,-3.652124086666668
mp-1101279,TmTlO3,0.7359999999999991,0.08849144224999801,-2.50676366316667
mp-755258,TmVO3,0.0,0.0,-3.320021488000004
mp-972367,UAlO3,0.0,0.173777164850612,-3.236607310999998
mp-1069774,UBRh3,0.0,0.055236393785712004,-0.5855646567527281
mp-1187752,UBeO3,0.0,0.43902614499997805,-3.052382719999998
mp-1105902,UCoS3,0.0,0.078939353822896,-1.2009246255104071
mp-1188226,UCoSe3,0.0,0.11900579891665601,-0.9655338844062481
mp-22063,UCrS3,0.0,0.016900233708328,-1.3814404190000031
mp-1106185,UCrSe3,0.0,0.018088932791661003,-1.1443465384062481
mp-22667,UFeS3,0.0,0.109560473624997,-1.241572883499998
mp-1079562,UFeSe3,0.0,0.250741900499997,-0.8242295474062481
mp-1070301,UGa3Ni,0.0,0.043698150666666005,-0.274331436499998
mp-31428,UGa3Ni,0.0,0.12584884266666702,-0.192180744499998
mp-1187745,UHgO3,0.0,0.24559588750000202,-2.6441475635
mp-19912,UMnSe3,0.0,0.059306191600001,-1.049024329992454
mp-1189264,UNiS3,0.0,0.021444308541662002,-1.280549957999996
mp-1188256,UNiSe3,0.0,0.034535965083328006,-1.059429955406248
mp-1187714,UPdO3,0.6282000000000001,0.441087706000004,-2.4486557449999973
mp-21103,UPdSe3,0.0,0.0,-1.100248432906249
mp-28607,UReB3,0.0,0.0,-0.5540231669999961
mp-21217,URhS3,0.0,0.048183152454547004,-1.317842911499997
mp-1105660,URuS3,0.0,0.003380140833328,-1.2896269361875001
mp-1068256,USi3Ir,0.0,0.0,-0.564061219999997
mp-1187736,UTiO3,0.0,0.307579281999979,-3.105869773666664
mp-865322,UTlO3,0.2736,0.0,-2.9387770976667262
mp-1188711,UVS3,0.0,0.05923799397729101,-1.518399097499998
mp-1188372,UVSe3,0.0,0.00491690968751,-1.251679570406246
mp-27769,V3AsC,0.0,0.024273909799994,-0.579759551500001
mp-1079224,V3AsN,0.0,0.028362014166667,-0.8696673849166581
mp-1078963,V3GaN,0.0,0.0,-0.750254636500005
mp-1079313,V3GeC,0.0,0.0,-0.47261859799999906
mp-1079695,V3GeN,0.0,0.0,-0.7924901239999981
mp-1080573,V3PC,0.0,0.005308297171298,-0.7016265669285711
mp-1079048,V3PN,0.0,0.017273955047619003,-1.038788323345238
mp-1100926,VAgO3,1.7207,0.07809851700001201,-1.676857912833333
mp-1178815,VAgO3,1.9488,0.011701726000012002,-1.743254703833332
mp-559736,VAgO3,1.628299999999999,0.0,-1.754956429833332
mp-624691,VAgO3,1.918899999999999,0.023145989000012003,-1.731810440833332
mp-18946,VBO3,1.874699999999999,0.0,-2.726639265833333
mp-1187744,VBiO3,0.0,0.27371001112500104,-1.814427443000001
mp-756282,VBiO3,1.297099999999999,0.010364148125002,-2.077773306
mp-1016904,VCdO3,0.0,0.285856828999976,-1.7858313570000002
mp-22649,VCdO3,0.42989999999999906,0.07017966049997601,-2.0015085255
mp-556857,VCdO3,0.0,0.0,-2.071688186000001
mp-22938,VCl3O,2.8945,0.08142675299997801,-1.6207491740000002
mp-10057,VCoB3,0.0,0.0,-0.6105516375000001
mp-1206118,VCoO3,0.11430000000000001,0.022131890499997003,-2.000081474
mp-1277045,VCoO3,1.151399999999999,0.09931393449999701,-1.92289943
mp-2754394,VCoO3,0.0,0.07013643868750001,-1.99485521725
mp-1101715,VCrO3,1.612299999999999,0.009702037625004,-2.440865693499996
mp-1216392,VCrO3,1.613299999999999,0.007511480125003,-2.443056250999997
mp-753988,VCrO3,1.315,0.011217036125003,-2.4393506949999972
mp-754036,VCrO3,1.3624,0.010773015125003001,-2.439794715999997
mp-755281,VCrO3,0.029799999999999,0.012308828625002,-2.438258902499998
mp-757023,VCrO3,1.345499999999999,0.013253611625001,-2.437314119499999
mp-770778,VCrO3,1.3901000000000001,0.012972799125002,-2.437594931999997
mp-770779,VCrO3,1.680699999999999,0.009381443625002001,-2.441186287499998
mp-770843,VCrO3,0.0,0.011187488625001001,-2.439380242499999
mp-770849,VCrO3,1.4095,0.011128841125001001,-2.439438889999998
mp-770855,VCrO3,1.4293,0.011546332125000001,-2.439021399
mp-1105167,VCuO3,0.0,0.15336664649999301,-1.737232236500001
mp-2371810,VCuO3,0.9255,0.094260811999994,-1.796338071
mp-504580,VCuO3,0.658999999999999,0.09447362799999401,-1.7961252550000002
mp-562987,VCuO3,0.8024,0.106599315999993,-1.783999567000001
mp-755580,VGaO3,1.605299999999999,0.092056070124998,-2.309716111000001
mp-755199,VGeO3,0.014299999999999001,0.078092769625,-2.159676125500001
mp-1178874,VHO3,2.071399999999999,0.022129907083330003,-1.964186262916666
mp-1178894,VHO3,0.009399999999999001,0.06399296724999601,-1.9223232027500012
mp-625246,VHO3,2.1444,0.048549777416664004,-1.937766392583333
mp-625258,VHO3,2.1433,0.024866239416664,-1.961449930583333
mp-625407,VHO3,2.1077,0.048751406749998005,-1.937564763249999
mp-627119,VHO3,0.6363,0.069229662749997,-1.9170865072499992
mp-627209,VHO3,0.0,0.14282055674999702,-1.84349561325
mp-627684,VHO3,0.32219999999999904,0.29757077874999804,-1.68874539125
mp-1016938,VHgO3,0.0,0.291137883375001,-1.500489613500001
mp-29188,VHgO3,2.175599999999999,0.003496093374999,-1.788131403500003
mp-1246912,VMoN3,0.0,0.3000552148,-0.458762812
mp-1178820,VNO3,0.0,0.387016587500002,-1.332170090000001
mp-1189181,VNO3,0.0,0.395708551500002,-1.323478126
mp-1206033,VNiO3,0.0,0.030067912000024004,-1.9706471140000001
mp-1273627,VNiO3,0.037200000000000004,0.082326768000024,-1.918388258
mp-2903341,VOF3,4.1483,0.0485269835,-2.6641257400000002
mp-556026,VOF3,3.6563,0.0,-2.712652723499999
mp-752787,VOF3,3.469999999999999,0.021136561999999002,-2.6915161615
mp-752824,VOF3,3.2589,0.029276177500000004,-2.683376545999999
mp-753030,VOF3,3.3804,0.020398917999999003,-2.6922538055
mp-753525,VOF3,3.2329,0.024951513499999002,-2.68770121
mp-754919,VOF3,3.033,0.021615947499999,-2.691036776
mp-756077,VOF3,2.876,0.026382063999999,-2.6862706595
mp-759725,VOF3,3.0935,0.047819652000000004,-2.6648330715
mp-759983,VOF3,3.495,0.045012238999999,-2.6676404845
mp-760178,VOF3,2.8891,0.051060099499999005,-2.661592624
mp-760313,VOF3,2.2205,0.09562531950000001,-2.617027403999999
mp-760338,VOF3,2.2258,0.09630424850000001,-2.616348474999999
mp-760367,VOF3,2.6463,0.053646369500000006,-2.659006354
mp-761122,VOF3,3.8907,0.024952771500000002,-2.687699952
mp-761177,VOF3,3.0386,0.05807496300000001,-2.654577760499999
mp-764274,VOF3,3.4202,0.006305061000000001,-2.706347662499999
mp-775981,VOF3,1.8771,0.063076382,-2.6495763415
mp-776441,VOF3,1.8397000000000001,0.0627597315,-2.649892991999999
mp-776473,VOF3,2.9487,0.025668984500000002,-2.686983739
mp-776474,VOF3,3.055199999999999,0.0229105925,-2.689742131
mp-781081,VOF3,3.1125,0.022392188499999,-2.690260535
mp-850876,VOF3,2.9248000000000003,0.030141143999999002,-2.6825115795
mp-1078971,VPS3,0.1223,0.11585447284895802,-0.7786472474285691
mp-21862,VRu3C,0.0,0.302494620972222,0.06953486930555901
mp-754608,VSiO3,0.0,0.020424157416666002,-2.8087977035
mp-1207852,VSnO3,0.0,0.26782243325000005,-1.958239529500001
mp-1247461,VWN3,0.058300000000000005,0.3602444335,-0.459419191874999
mp-1378086,VZnO3,0.8621000000000001,0.10532770849999601,-2.124512842500001
mp-556208,WCl3O,0.0,0.05997516049998901,-1.516688350999999
mp-28573,WI3O,0.8858,0.033221527083334,-0.8099306324999991
mp-1188654,WNCl3,1.8151000000000002,0.0,-0.8578982702500011
mp-753398,WOF3,2.4411,0.0,-2.610498713999999
mp-753808,WOF3,0.0,0.1495048635,-2.460993850499999
mp-766847,WOF3,0.0,0.13682519,-2.473673523999999
mp-4448,Y3AlC,0.0,0.0,-0.39203290500000004
mp-10601,Y3GaC,0.0,0.0,-0.45215557450000105
mp-19817,Y3InC,0.0,0.0,-0.50450668833333
mp-10608,Y3SnC,0.0,0.0,-0.631686528000001
mp-9960,Y3TlC,0.0,0.0,-0.46153104766666603
mp-1369676,YAgO3,0.0009999999999990002,0.010511026374999,-2.153766481666667
mp-1369873,YAgO3,0.007200000000000001,0.079617331708333,-2.084660176333332
mp-1215933,YAl3Ag,0.0,0.004861144866662,-0.39580244485333205
mp-4054,YAl3Ni,0.0,0.0,-0.590546874999999
mp-3792,YAlO3,5.5402000000000005,0.018835838049996,-3.7122381155
mp-756214,YAlO3,4.9586000000000015,0.045807479549997004,-3.685266473999999
mp-756705,YAlO3,4.3247,0.060437526883330005,-3.6706364266666682
mp-7964,YAlO3,3.4964999999999993,0.102225660549997,-3.628848293
mp-1100874,YBO3,4.7951999999999995,0.036316580666667,-3.485943071833333
mp-1100876,YBO3,4.4,0.07649623866666701,-3.445763413833333
mp-1216067,YBO3,4.2311,0.049742556666666,-3.472517095833333
mp-29205,YBO3,5.1696,0.0,-3.5222596525
mp-760457,YBO3,4.5981000000000005,0.08505931666666701,-3.437200335833333
mp-1018643,YBPd3,0.0,0.09077507272728201,-0.6827228513308651
mp-1018644,YBPt3,0.0,0.09561044222221601,-0.8788740581777741
mp-29725,YBRh3,0.0,0.0,-0.765475045833333
mp-1358047,YBiO3,2.065,0.12011459187500001,-2.677684977000001
mp-1369528,YBiO3,1.6856,0.16573472787500002,-2.632064841
mp-1406000,YBiO3,2.295,0.155270851875,-2.6425287170000002
mp-754152,YBiO3,2.476099999999999,0.047674832874999004,-2.750124736000001
mp-768221,YBiO3,3.0748,0.033022223875001006,-2.764777345
mp-1215930,YBiTe3,1.024699999999999,0.027144715749997002,-1.051943438
mp-1273178,YCoO3,0.34899999999999903,0.011655866589286001,-2.5802562415
mp-1288734,YCoO3,0.11410000000000001,0.015464709589286002,-2.576447398499999
mp-1330514,YCoO3,0.007299999999999001,0.022722317422617003,-2.569189790666668
mp-1387356,YCoO3,0.0,0.10634499408928501,-2.485567113999999