material_id,formula,band_gap,e_hull,formation_energy
mp-859873,LiMnF3,3.7715,0.09268069449999701,-2.953402733252873
mp-1120793,LiMnO3,0.0,0.18392001396665902,-1.6915997667528742
mp-8180,LiNO3,2.9369,0.0,-1.386762498666665
mp-1078377,LiNbO3,3.684,0.020706871000003003,-2.878810780666667
mp-1196213,LiNbO3,3.1296,0.013330627000003,-2.886187024666665
mp-3731,LiNbO3,3.3358,0.0,-2.899517651666666
mp-552588,LiNbO3,2.275,0.033008032000003004,-2.866509619666666
mp-674361,LiNbO3,2.9621,0.010056417400003001,-2.8894612342666672
mp-675069,LiNbO3,3.0192,0.006859243142860001,-2.8926584085238103
mp-676694,LiNbO3,2.9794,0.008015285666669,-2.891502366000001
mp-685413,LiNbO3,0.0,0.11517770430769501,-2.784339947358975
mp-686057,LiNbO3,3.0381,0.010854103250004,-2.888663548416666
mp-755559,LiNbO3,3.4857,0.055166170000003005,-2.844351481666666
mp-760701,LiNbO3,3.4233000000000002,0.035907200000004004,-2.8636104516666663
mp-776108,LiNbO3,2.8678,0.029836594500004,-2.869681057166666
mp-1185387,LiNdO3,0.0,0.259888149964283,-2.298714777166667
mp-758501,LiNiF3,5.245,0.018963556499999,-2.5963451133333333
mp-1078188,LiOsO3,0.0,0.008333421,-1.736222352666666
mp-1078358,LiOsO3,0.0,0.0,-1.744555773666667
mp-1202801,LiPO3,5.5832,0.000989664133332,-2.701737629295238
mp-29195,LiPO3,5.7219999999999995,0.0,-2.702727293428572
mp-557189,LiPO3,5.7828,0.0025110323333320003,-2.700216261095238
mp-1185263,LiPaO3,3.1954000000000002,0.0,-3.339490445666668
mp-1185388,LiPmO3,0.0,0.287546243964285,-2.298333461166667
mp-1185404,LiPrO3,0.0,0.23509200108928402,-2.297372440000001
mp-8189,LiReO3,0.0,0.075053480999998,-2.104858231166666
mp-1185420,LiRuO3,0.0,0.211082630791667,-1.457952953666666
mp-4995,LiSbO3,2.1379,0.0,-2.118194097166666
mp-752636,LiSbO3,1.4496,0.08881048749999901,-2.029383609666666
mp-756951,LiSbO3,2.9459,0.058571784499999,-2.059622312666666
mp-770932,LiSbO3,2.8255999999999992,0.0162339305,-2.101960166666666
mp-28835,LiScI3,0.0,0.047725456319999006,-1.347733139666667
mp-1211104,LiSeO3,0.5306000000000001,0.20784121066667002,-1.434109698135416
mp-20747,LiSi3Pd,0.0,0.38917825344217605,0.066143833333333
mp-1185414,LiSiO3,0.0,0.321286189688888,-2.394241709666666
mp-973136,LiSmO3,0.0,0.308178575339285,-2.290626914666666
mp-998230,LiSnCl3,0.00030000000000000003,0.020803551500000003,-1.677136137666666
mp-998591,LiSnCl3,3.4801,0.010285384500000001,-1.687654304666665
mp-1105216,LiTaO3,3.7436,0.14810256400000701,-2.977256206133333
mp-1105280,LiTaO3,2.4709,0.11045401150000701,-3.014904758633334
mp-1105326,LiTaO3,3.471899999999999,0.25465350150000704,-2.870705268633332
mp-3666,LiTaO3,3.7003,0.0,-3.125358770133336
mp-754345,LiTaO3,2.5608,0.088644969000005,-3.036713801133333
mp-862870,LiTcO3,0.0,0.06527020858333,-1.911468098666667
mp-755231,LiTeO3,2.1534,0.06271661574999901,-1.7506827875000002
mp-675460,LiTiCl3,0.0,0.20207853654166402,-1.612737931958329
mp-676210,LiTiCl3,0.0177,0.094955601541663,-1.71986086695833
mp-1185236,LiTmO3,0.0,0.48891754646428504,-2.223948161666668
mp-1181180,LiUO3,0.391399999999999,0.20802292799996602,-3.140485972666666
mp-545712,LiUO3,0.4172,0.20903442499996602,-3.139474475666665
mp-8007,LiUO3,0.44310000000000005,0.0,-3.348508900666648
mp-752607,LiVF3,2.5457,0.045084076999996,-3.019841388666666
mp-752619,LiVF3,2.4089,0.079180795999996,-2.985744669666666
mp-752764,LiVF3,2.654699999999999,0.018508798999995,-3.046416666666668
mp-752911,LiVF3,2.6241,0.035791298499996,-3.029134167166666
mp-753024,LiVF3,1.976,0.091630748999996,-2.973294716666667
mp-756643,LiVF3,2.4587,0.10041620199999601,-2.9645092636666672
mp-777551,LiVF3,2.8112,0.037158102999995,-3.027767362666667
mp-777676,LiVF3,2.489,0.070271550999995,-2.9946539146666673
mp-777893,LiVF3,2.0934,0.021154517499996,-3.043770948166666
mp-777894,LiVF3,2.7159999999999993,0.027580479499996,-3.037344986166666
mp-778509,LiVF3,2.7453000000000003,0.071159350499996,-2.9937661151666672
mp-782665,LiVF3,2.5628,0.053513235624995006,-3.011412230041667
mp-849502,LiVF3,1.355,0.09431560144443901,-2.970609864222223
mp-1176521,LiVO3,0.00019999999999900002,0.082759272000008,-2.345197421666667
mp-19373,LiVO3,3.0342,0.0,-2.427956693666675
mp-19440,LiVO3,2.8357,0.0,-2.427194401166667
mp-723831,LiVO3,2.7113,0.000762292500001,-2.427194401166674
mp-754098,LiVO3,2.0933,0.111348965000007,-2.316607728666667
mp-763200,LiVO3,2.002999999999999,0.085307308000007,-2.342649385666668
mp-1176510,LiVS3,0.039899999999999006,0.102973500583332,-1.141285493166665
mp-976283,LiYO3,0.0,0.415705300089284,-2.229059917666667
mp-1206894,Lu3AlC,0.0,0.0,-0.48109708100000204
mp-1017627,Lu3AlN,0.0,0.0,-1.131227487749998
mp-1206912,Lu3GaC,0.0,0.0,-0.5449145905
mp-1206516,Lu3InC,0.0,0.0,-0.5728383103333351
mp-11733,Lu3InN,0.0,0.0,-1.218801315749993
mp-10609,Lu3SnC,0.0,0.0,-0.668651213999996
mp-10607,Lu3TlC,0.0,0.0,-0.524768511666668
mp-1185485,LuAlO3,3.1252,0.255492339750002,-3.549526354333333
mp-754435,LuAlO3,0.0002,0.082206401750003,-3.722812292333333
mp-755358,LuAlO3,3.6479,0.061627178750002,-3.7433915153333333
mp-755574,LuAlO3,6.091399999999999,0.021032550250001003,-3.783986143833334
mp-756850,LuAlO3,3.711999999999999,0.098312366416669,-3.706706327666666
mp-1222450,LuBO3,4.5157,0.084125662000001,-3.485025854166667
mp-7560,LuBO3,5.3023,0.0,-3.5691515161666683
mp-760461,LuBO3,4.2791,0.028761409000001,-3.540390107166666
mp-3105,LuBPd3,0.0,0.11490506962962801,-0.677706008694258
mp-3717,LuBRh3,0.0,0.0,-0.888095087833332
mp-1176501,LuBiO3,3.1586,0.027742273624999002,-2.855013119333334
mp-772801,LuBiO3,2.3018,0.05884514162499901,-2.823910251333335
mp-1222293,LuBiTe3,1.104299999999999,0.023043487500004,-1.018663021333333
mp-550950,LuCoO3,0.0,0.037204011839285005,-2.639663920333333
mp-755471,LuCrO3,2.5313,0.0,-3.253673551833335
mp-1193395,LuFeO3,0.0,0.013801381291665001,-2.901636080666666
mp-22588,LuFeO3,1.6083,0.036039123124998004,-2.879398338833334
mp-1185488,LuGaO3,3.027399999999999,0.46455023099999804,-2.755382060166668
mp-755342,LuGaO3,2.5134,0.021206369333333003,-3.198725921833333
mp-755792,LuGaO3,3.9739999999999993,0.054542352833333,-3.165389938333334
mp-768505,LuGaO3,2.8917,0.0,-3.219932291166668
mp-1232147,LuMgSe3,0.0,0.29555850249999804,-1.407223440239584
mp-1237926,LuMgSe3,0.0,0.328991306999999,-1.373790635739583
mp-18808,LuMnO3,0.0,0.0,-3.11040649758621
mp-21125,LuMnO3,0.44819999999999904,0.050306498166669,-3.06009999941954
mp-1079715,LuNiGe3,0.0,0.013156879999998001,-0.5124445843333331
mp-1105866,LuNiO3,0.099499999999999,0.016295357291666,-2.534079793833333
mp-19327,LuNiO3,0.0,0.014914190291668001,-2.535460960833331
mp-10699,LuRh3C,0.0,0.0,-0.551577750333336
mp-1205366,LuRhO3,1.0887,0.0,-2.612046788833334
mp-1207093,LuRu3C,0.0,0.0,-0.279175664333335
mp-772180,LuScO3,3.0848,0.040043889166662,-4.006214216666667
mp-776593,LuScO3,4.606299999999999,0.063459346499996,-3.982798759333333
mp-768293,LuSeO3,1.7049999999999992,0.037578519507808,-2.543677874302084
mp-754231,LuTiO3,0.0,0.06194142325000301,-3.6543436930000013
mp-754597,LuTlO3,1.0776,0.083761391624997,-2.528349047500002
mp-2767717,LuVO3,0.261099999999999,0.0,-3.361304225583333
mp-755583,LuVO3,1.572499999999999,0.005773750249996001,-3.323391881833334
mp-1206514,Mg3AsN,2.281799999999999,0.0,-0.896367267250001
mp-2647001,Mg3BiSb,0.1607,0.006847672124998001,-0.296550967
mp-1080847,Mg3SbN,1.623399999999999,0.0,-0.705936314
mp-10185,Mg3ZnC,0.0,0.23575783591999902,0.19325624199999902
mp-998358,MgAgF3,2.375099999999999,0.033178936000001005,-2.748547396333332
mp-998418,MgAgF3,2.1901,0.018142888000001002,-2.763583444333332
mp-1185841,MgAlO3,0.0,0.42934857399999604,-2.537314224
mp-1199652,MgBO3,0.18879999999999902,0.18264335749999502,-2.531132217583333
mp-1185847,MgBiO3,0.0,0.45651727566667905,-1.642190122000001
mp-1376863,MgBiO3,0.0,0.124047268166679,-1.9746601295000001
mp-2647164,MgCO3,4.8023,0.31464865683333204,-2.127382018166668
mp-5348,MgCO3,4.9603,0.0,-2.442030674999999
mp-546079,MgCO3,5.4366,0.378061633,-2.063969041999999
mp-20424,MgCo3C,0.0,0.06496310500000001,0.064963105000001
mp-755711,MgCoO3,0.16439999999999902,0.10372039299999901,-1.7887414135
mp-756102,MgCoO3,0.0,0.09207527150000001,-1.800386535
mp-761524,MgCoO3,0.0,0.06609796550000001,-1.826363841
mp-1346485,MgCrO3,0.229299999999999,0.12049696800000001,-2.385637270000001
mp-2225290,MgCrO3,0.9534,0.171648615999999,-2.334485622000001
mp-1076317,MgCuO3,0.0,0.49833060700000004,-1.155388759999999
mp-1279364,MgFeO3,0.2,0.11339740200000001,-2.0097763885
mp-1303831,MgFeO3,0.229499999999999,0.11357428450000001,-2.009599506
mp-1372708,MgFeO3,0.0,0.150341577999999,-1.9728322125000002
mp-752416,MgFeO3,0.11290000000000001,0.175986193000001,-1.947187597499998
mp-754508,MgFeO3,0.0,0.114727244500001,-2.008446545999999
mp-3047,MgGeO3,2.4744,0.14140730150000302,-2.4243306515
mp-3759,MgGeO3,3.633899999999999,0.031802013000004,-2.533935939999999
mp-4575,MgGeO3,3.048999999999999,0.012849643250003002,-2.55288830975
mp-4819,MgGeO3,2.5261,0.011727870000003,-2.554010083
mp-29483,MgInBr3,2.2355,0.011251461499999001,-1.474897149833331
mp-1232299,MgInS3,0.0,0.18116615775,-0.935372472833331
mp-1232193,MgInSe3,0.0,0.27927762775000103,-0.762555394739582
mp-1232401,MgInSe3,0.0,0.277398523083334,-0.7644344994062491
mp-1237970,MgInSe3,0.0,0.266365533750001,-0.775467488739582
mp-770581,MgMnO3,0.6265000000000001,0.076736935,-2.289005456586206
mp-770618,MgMnO3,0.0,0.0,-2.365742391586207
mp-976446,MgMnO3,0.0,0.49021219800000004,-1.875530193586207
mp-1342607,MgMoO3,0.067899999999999,0.059938090999997,-2.368318689999999
mp-1206415,MgNi3B,0.0,0.043298927155301,-0.26577089883333205
mp-10700,MgNi3C,0.0,0.0,-0.12982654399999902
mp-1017629,MgNiH3,0.0,0.005229102625000001,-0.25184801374999904
mp-675651,MgPS3,2.7986,0.0,-1.052409944428569
mp-30943,MgPSe3,2.0382,0.0,-0.8816437593348211
mp-769322,MgSO3,4.9221,0.05739550142857101,-2.2741813385
mp-769347,MgSO3,5.0797,0.07342707442857101,-2.2581497655
mp-769397,MgSO3,5.009399999999999,0.04840998342857,-2.2831668565
mp-1342178,MgSbO3,0.5657000000000001,0.198446433708335,-2.1736907725
mp-1347225,MgSbO3,1.997199999999999,0.15861940270833602,-2.213517803499999
mp-1232175,MgScS3,0.080099999999999,0.317098725499999,-1.474565071499999
mp-1232226,MgScS3,0.0,0.214182141499999,-1.577481655499999
mp-1232150,MgScSe3,0.0,0.291540521249999,-1.338024583406249
mp-1232171,MgScSe3,0.0,0.18156591524999902,-1.44799918940625
mp-12271,MgSeO3,4.0013,0.0,-2.024735936468753
mp-1016928,MgSiO3,2.9292,0.46725523316666906,-2.763782162
mp-1020115,MgSiO3,4.7633,0.012783414166669001,-3.218253981
mp-1020117,MgSiO3,4.7652,0.011153507416669001,-3.21988388775
mp-1020118,MgSiO3,4.800600000000001,0.018486247291669002,-3.212551147875
mp-1020123,MgSiO3,4.6316,0.020657474666670003,-3.210379920499999
mp-1020124,MgSiO3,4.8602,0.010191609166669,-3.220845786
mp-1020125,MgSiO3,4.831,0.01116162841667,-3.219875766749999
mp-1020361,MgSiO3,4.7926,0.01051417991667,-3.220523215249999
mp-1180703,MgSiO3,2.2265,0.40248599716667005,-2.828551397999999
mp-1181528,MgSiO3,3.050099999999999,0.30047063966666904,-2.9305667555
mp-1182302,MgSiO3,3.273199999999999,0.29466539991667,-2.93637199525
mp-1195746,MgSiO3,4.4998000000000005,0.021623114416669,-3.20941428075
mp-1196002,MgSiO3,4.5845,0.016838666291670003,-3.214198728874999
mp-1199778,MgSiO3,4.6372,0.011876652916669,-3.21916074225
mp-1256030,MgSiO3,1.0261,0.44185109816667,-2.789186296999999
mp-3470,MgSiO3,4.7797,0.007678037916668001,-3.223359357250002
mp-3547,MgSiO3,5.415499999999999,0.21704053316667002,-3.013996862
mp-4321,MgSiO3,4.5304,0.019268999666670002,-3.211768395499999
mp-4391,MgSiO3,4.642499999999999,0.26111877616667,-2.969918619
mp-5026,MgSiO3,4.742100000000001,0.008332643916671,-3.222704751249998
mp-530986,MgSiO3,4.6987,0.10319220191667,-3.127845193249999
mp-554137,MgSiO3,3.788599999999999,0.108532085416669,-3.12250530975
mp-556940,MgSiO3,3.937699999999999,0.10922547466666901,-3.1218119205
mp-557803,MgSiO3,4.9148,0.012639097166668,-3.218398298000001
mp-5834,MgSiO3,4.7002,0.00786608891667,-3.22317130625
mp-5924,MgSiO3,5.7928,0.11707234016666901,-3.113965055
mp-603907,MgSiO3,5.0422,0.191289210666671,-3.039748184499999
mp-603930,MgSiO3,4.544399999999999,0.009410846166669,-3.221626549
mp-642209,MgSiO3,1.4453,0.449162640166669,-2.781874755
mp-642210,MgSiO3,4.308,0.146289650166669,-3.084747745
mp-642216,MgSiO3,5.1709,0.125716575166669,-3.10532082
mp-642228,MgSiO3,3.1742,0.20596262704167,-3.025074768124999
mp-644879,MgSiO3,4.5951,0.050826624666669006,-3.1802107705
mp-657336,MgSiO3,2.5861,0.28947991866667,-2.941557476499999
mp-657338,MgSiO3,4.3843,0.133171193791669,-3.097866201375
mp-772412,MgSiO3,4.953200000000001,0.088718057541669,-3.142319337625
mp-1176491,MgSnO3,2.5629,0.0035946489999960003,-2.492748274
mp-769348,MgSnO3,2.3909000000000002,0.07301049799999701,-2.423332424999999
mp-1016830,MgTiO3,1.909799999999999,0.45547797899999704,-2.907458666666667
mp-1345923,MgTiO3,2.3514,0.082907726999998,-3.280028918666667
mp-3771,MgTiO3,3.529499999999999,0.0,-3.362936645666665
mp-1210617,MgTlCl3,4.4363,0.020793652000000003,-1.8628035546666681
mp-998739,MgTlF3,4.487,0.0,-3.075989374666666
mp-1079330,MgVO3,0.0,0.18472074199999503,-2.5842052320000013
mp-1370061,MgVO3,0.6976000000000001,0.09281653749999501,-2.6761094365
mp-27186,MgVO3,2.7895000000000003,0.0,-2.768925973999999
mp-545348,MgVO3,0.0,0.26218325399999604,-2.506742719999999
mp-1147661,MgVS3,0.4611,0.220976500499995,-1.164408992999999
mp-1326513,MgWO3,2.438,0.08178308499999701,-2.3731898510000002
mp-1413707,MgWO3,0.0,0.397613723999997,-2.057359212
mp-10666,Mn3AgN,0.0,0.10139039691666601,-0.17710310152298803
mp-4593,Mn3AlC,0.0,0.0,-0.19110724775862
mp-1207055,Mn3AlN,0.0,0.189247354241381,-0.44415488375862106
mp-1206774,Mn3AsN,0.0,0.170563436499996,-0.177386089258621
mp-1207183,Mn3AuN,0.0,0.09417163337499801,-0.316705495064636
mp-510380,Mn3CuN,0.0,0.068832146249999,-0.209661352189658
mp-21313,Mn3GaC,0.0,0.0,-0.11966750025862101
mp-627439,Mn3GaN,0.0,0.0,-0.442840044439657
mp-20180,Mn3GeC,0.0,0.039028682739129,-0.057280646758621004
mp-22706,Mn3GeC,0.0,0.013187981739129,-0.08312134775862101
mp-22492,Mn3GeIr,0.0,0.12277065145901701,-0.04332244575862201
mp-1205588,Mn3GeN,0.0,0.0070517955,-0.283973625758621
mp-1206402,Mn3HgN,0.0,0.10799451524999501,-0.170498983189659
mp-1094118,Mn3InC,0.0,0.09823857784782401,0.08095771898425701
mp-22502,Mn3IrN,0.0,0.0866660125,-0.21834808375862003
mp-20362,Mn3NiN,0.0,0.061092945666663005,-0.34521206877299104
mp-10198,Mn3PdN,0.0,0.022875056,-0.300649559758619
mp-7070,Mn3PtN,0.0,0.0,-0.38082256775862006
mp-582028,Mn3RhN,0.0,0.08466802849999701,-0.37492705793965503
mp-1206805,Mn3SbN,0.0,0.13757563549999902,-0.24514953193965403
mp-20330,Mn3SiIr,0.0,0.12090502510000001,-0.22341343275862002
mp-1210618,Mn3SiNi,0.0,0.08422690676293201,-0.30729933896120304
mp-20860,Mn3SnC,0.0,0.054929460847825004,0.037648601984258005
mp-1210555,Mn3SnH,0.0,0.0,-0.04364521200862
mp-505571,Mn3SnN,0.0,0.035761241250000006,-0.24273225718965502
mp-2930,Mn3ZnC,0.0,0.042486460018391,-0.004132007381407001
mp-15805,Mn3ZnN,0.0,0.0,-0.45057511943965306
mp-754229,MnAgO3,0.0,0.082111077833335,-1.188434382919541
mp-1258775,MnAlO3,0.9551000000000001,0.176786013854167,-2.54344941191954
mp-1260288,MnAlO3,0.0,0.2697255731875,-2.4505098525862072
mp-1368992,MnAlO3,0.5506000000000001,0.147854935187499,-2.572380490586207
mp-1444809,MnAlO3,0.0,0.2710575871875,-2.449177838586207
mp-774250,MnAlO3,1.2511,0.046342811187500006,-2.673892614586207
mp-1278986,MnBO3,0.598599999999999,0.032337464552087004,-2.39675402391954
mp-1289597,MnBO3,1.3314,0.020367710552088,-2.408723777919539
mp-25296,MnBO3,0.5716,0.22578446271875402,-2.203307025752873
mp-761288,MnBO3,0.0,0.044420275052088,-2.38467121341954
mp-1105271,MnBiO3,0.0,0.025675421600012002,-1.8084535820862082
mp-1106239,MnBiO3,0.09580000000000001,0.029900116100012003,-1.804228887586207
mp-1194603,MnBiO3,1.9010999999999991,0.026212832100012,-1.807916171586207
mp-1202955,MnBiO3,0.0,0.034808669725013,-1.799320333961207
mp-23477,MnBiO3,1.4751,0.028161421100012,-1.805967582586208
mp-556711,MnBiO3,0.7774999999999991,0.097867271600012,-1.736261732086208
mp-1078473,MnCO3,3.080899999999999,0.030299366999999,-1.982685269586208
mp-1180143,MnCO3,0.15680000000000002,0.2725020945,-1.740482542086208
mp-1271783,MnCO3,3.7996,0.029906560500000002,-1.9830780760862081
mp-18814,MnCO3,3.2291,0.0,-2.012984636586208
mp-690525,MnCO3,3.449,0.081420198,-1.931564438586208
mp-1016854,MnCdO3,0.0,0.27990697533333403,-1.411691312586207
mp-546798,MnClO3,2.0431,0.361621988861111,-0.840291030586207
mp-1210746,MnCo3C,0.0,0.094805685869563,0.071203079413791
mp-1181286,MnCoO3,0.0,0.089941378999999,-1.5599775065862072
mp-20641,MnCoO3,0.0,0.0,-1.6499188855862061
mp-1176440,MnCuO3,0.0,0.04390752036111201,-1.426801526586206
mp-674482,MnFeO3,0.8193,0.036245984437501,-1.824259613836207
mp-759744,MnFeO3,0.0017000000000000001,0.0665825984375,-1.793922999836208
mp-1176435,MnGaO3,1.2823,0.08074590918749801,-2.060712347086208
mp-1106201,MnGeO3,1.1435,0.012176887999999001,-2.123705890586208
mp-20798,MnGeO3,1.6731999999999991,0.0,-2.135882778586207
mp-643577,MnGeO3,1.307599999999999,0.014911642249999002,-2.120971136336207
mp-1080187,MnHgO3,0.0,0.30272734433333504,-1.044812403086208
mp-28912,MnInBr3,1.6242,0.004096450999998,-1.071247910919541
mp-1099572,MnInF3,0.001,0.032308319611111004,-2.50279309391954
mp-1422819,MnInF3,2.9034999999999993,0.032352517611112006,-2.502748895919539
mp-998241,MnInF3,2.476499999999999,0.032359583611111,-2.50274182991954
mp-1193780,MnInO3,0.802999999999999,0.016639308020835002,-1.987354307586207
mp-2767681,MnInO3,0.283299999999999,0.004948190875001,-1.993212647146549
mp-550807,MnInO3,0.0,0.022085832687501,-1.98190778291954
mp-882825,MnInO3,0.9206999999999991,0.014556675354167001,-1.989436940252875
mp-1180705,MnNiO3,0.0,0.25346269800000004,-1.365809642586207
mp-19331,MnNiO3,0.0,0.0,-1.6192723405862082
mp-1210723,MnPO3,0.0,0.30757365464394204,-2.162157954264779
mp-1232516,MnPS3,1.029799999999999,0.006663317,-0.7003915400147771
mp-8613,MnPS3,0.1562,0.0,-0.7070548570147771
mp-8695,MnPSe3,0.0,0.0,-0.540280136921028
mp-27818,MnSO3,4.1546,0.072435846071429,-1.872217544586206
mp-560522,MnSO3,3.339,0.072606875238095,-1.87204651541954
mp-1199914,MnSeO3,3.3754,0.007921510250000001,-1.6429584243049442
mp-1202364,MnSeO3,3.099599999999999,0.0,-1.650879934554944
mp-22224,MnSeO3,2.8432999999999993,0.020254424499987003,-1.6306255100549572
mp-1172857,MnSiO3,0.0,0.017926196666673,-2.779933577086206
mp-1180172,MnSiO3,1.1731,0.29550411996667203,-2.502355653786208
mp-1180212,MnSiO3,0.33290000000000003,0.37157622176667104,-2.426283551986207
mp-1181218,MnSiO3,1.9295,0.11685922296667,-2.681000550786208
mp-1289249,MnSiO3,0.0,0.014492594166672002,-2.7833671795862083
mp-17766,MnSiO3,2.875499999999999,0.017891537666672,-2.779968236086207
mp-532143,MnSiO3,2.6502,0.08402936004167201,-2.713830413711206
mp-560199,MnSiO3,2.959799999999999,0.008882381366671,-2.788977392386208
mp-5945,MnSiO3,2.6058,0.00878835530953,-2.789071418443349
mp-647680,MnSiO3,0.0422,0.309215707966671,-2.488644065786208
mp-1181816,MnSnO3,0.1836,0.15408991200000102,-1.9298034005862061
mp-20569,MnSnO3,0.877599999999999,0.0,-2.083893312586208
mp-691106,MnSnO3,0.22940000000000002,0.022319597000001003,-2.061573715586206
mp-1176417,MnTeO3,3.006299999999999,0.034447071833326,-1.73984980841954
mp-1210642,MnTeO3,0.36209999999999903,0.23026436183332602,-1.5440325184195411
mp-30528,MnTlCl3,1.2858,0.024392236499999,-1.415745785752875
mp-570290,MnTlCl3,1.1477,0.029307777999999004,-1.410830244252875
mp-570300,MnTlCl3,1.9323000000000001,0.0,-1.440138022252875
mp-998762,MnTlF3,2.6304,0.0,-2.595991289252874
mp-23443,MnTlI3,0.0,0.017026593999998,-0.753259861252875
mp-1311921,MnTlO3,0.0,0.06405137968749801,-1.4931271957528751
mp-753819,MnTlO3,0.0,0.061953488187498004,-1.4952250872528752
mp-768374,MnTlO3,0.0,0.030775178187499003,-1.526403397252875
mp-768432,MnTlO3,0.0,0.12188634718749801,-1.4352922282528762
mp-770870,MnTlO3,0.0,0.053737198187498,-1.5034413772528752
mp-1106224,MnVO3,0.31570000000000004,0.041752666499998,-2.284756146086208