material_id,formula,band_gap,e_hull,formation_energy
mp-1183115,AcAlO3,4.1024,0.0,-3.690019421500002
mp-866101,AcCrO3,2.0031,0.0,-3.1389721295
mp-864606,AcCuO3,0.0,0.0,-2.4228924235
mp-861502,AcFeO3,0.9887999999999991,0.0,-2.771539465500001
mp-1183053,AcGaO3,2.895900000000001,0.0,-3.063252617
mp-1183142,AcMgO3,0.0,0.082312486499999,-3.0018453265
mp-864911,AcMnO3,0.0,0.0,-2.973630023086206
mp-1183139,AcNiO3,0.0,0.0,-2.455476575499998
mp-1183145,AcPdO3,0.0,0.008102040999999,-2.236955405499998
mp-1183152,AcScO3,3.3847,0.024140034874998002,-3.8290604304999993
mp-1183150,AcSiO3,0.0,0.47336186625000004,-2.8682463835
mp-865927,AcTiO3,0.0,0.0,-3.60763573816667
mp-1183168,AcVO3,0.0,0.0,-3.141069095500003
mp-1105645,Ag3SBr,0.2964,0.09831240649999601,-0.30571611199999804
mp-1229116,Ag3SBr,0.39870000000000005,0.063698640999996,-0.34032987749999805
mp-36600,Ag3SBr,0.39769999999999905,0.068296385999996,-0.335732132499998
mp-1173025,Ag3SI,0.33980000000000005,0.08667530199999601,-0.24060876049999802
mp-22995,Ag3SI,0.5478000000000001,0.066818196999996,-0.260465865499998
mp-558189,Ag3SI,0.6242999999999991,0.11639550499999601,-0.21088855749999802
mp-632480,Ag3SI,0.167599999999999,0.073682232999996,-0.25360182949999804
mp-673825,Ag3SI,0.256999999999999,0.08476500199999601,-0.24251906049999802
mp-674981,Ag3SI,0.262399999999999,0.077225024999996,-0.250059037499998
mp-675879,Ag3SI,0.32160000000000005,0.07550974299999601,-0.251774319499998
mp-676121,Ag3SI,0.373899999999999,0.073934319999996,-0.25334974249999803
mp-676561,Ag3SI,0.333,0.077612204999996,-0.249671857499998
mp-1178563,AgAsO3,0.2921,0.0,-1.269711258833334
mp-558950,AgAsO3,0.5930000000000001,0.025765314249999,-1.243945944583333
mp-775767,AgAsO3,0.7378,0.037267864500000004,-1.232443394333333
mp-752678,AgAuO3,0.0,0.41873277333333103,0.002464529166667
mp-776165,AgAuO3,0.24230000000000002,0.059424401833331,-0.35684384233333205
mp-780275,AgBO3,0.0,0.08524003049999801,-1.501129671166666
mp-23548,AgBiO3,0.0,0.049876170999993,-1.003011011333333
mp-775774,AgBiO3,0.0,0.027917849999993003,-1.024969332333334
mp-1178562,AgBrO3,2.383,0.0016533185833330002,-0.28503579633333204
mp-753176,AgCO3,0.0,0.004634585999996,-1.233628131333331
mp-1178561,AgClO3,2.7117,0.092817574499997,-0.352711819333332
mp-27941,AgClO3,2.3983,0.038284726499997,-0.40724466733333303
mp-775761,AgClO3,3.1001,0.031584152499997,-0.41394524133333305
mp-776199,AgClO3,3.113099999999999,0.048604945499998005,-0.396924448333332
mp-759939,AgGeO3,0.0,0.16110908199999402,-1.309913022333333
mp-779664,AgGeO3,0.0,0.13516193099999302,-1.335860173333333
mp-779706,AgGeO3,0.0,0.139566285499993,-1.331455818833333
mp-891854,AgGeO3,0.0,0.135711886999994,-1.335310217333333
mp-891880,AgGeO3,0.0,0.133380353624994,-1.337641750708333
mp-1202188,AgIO3,1.806899999999999,0.010943250000000002,-0.7021254153333331
mp-27384,AgIO3,2.4375,0.0,-0.713068665333332
mp-849271,AgIO3,1.9765000000000001,0.027469873500000002,-0.685598791833332
mp-552185,AgNO3,1.853899999999999,0.0,-0.6806635453333341
mp-638686,AgNO3,2.008899999999999,0.002379382500001,-0.678284162833332
mp-669466,AgNO3,2.0027,0.005029588000001001,-0.6756339573333331
mp-8196,AgNO3,1.7204000000000002,0.031171343000002003,-0.649492202333333
mp-18702,AgPO3,2.0232,0.0,-1.958048157761911
mp-775762,AgPO3,2.287,0.045444828500007,-1.912603329261903
mp-5470,AgPS3,1.3228,0.004740131833317,-0.23250120628273602
mp-1200271,AgPd3Se,0.0,0.000731596666668,-0.19395688359027402
mp-776166,AgPdO3,0.0,0.43927204399999703,-0.174272703333333
mp-776168,AgRuO3,0.0,0.057777263,-0.9938485823333331
mp-540872,AgSbO3,0.094599999999999,0.0,-1.444474670333332
mp-545999,AgSbO3,0.133299999999999,0.016763159999999,-1.427711510333333
mp-677054,AgSbO3,0.0,0.076518499333332,-1.367956170999999
mp-860791,AgSbO3,0.28749999999999903,0.06042335233333201,-1.384051318
mp-569052,AgSe3I,1.396399999999999,0.01609162759375,-0.17101233173958202
mp-755834,AgSnO3,0.0,0.091669975999994,-1.349847933333332
mp-570431,AgTe3I,1.0025,0.175717689346154,-0.16816866833333202
mp-558637,AgTeO3,1.6662,0.020474349750000002,-1.125950917416666
mp-559257,AgTeO3,1.5732,0.0,-1.146425267166666
mp-561489,AgTeO3,1.1676,0.020124158499999,-1.126301108666666
mp-1228446,Al3BC,0.453,0.0,-0.202281617499998
mp-1183169,AlAgO3,0.0,0.28559733533333304,-1.615019715333333
mp-1253488,AlAgO3,0.062200000000000005,0.139520041833333,-1.761097008833333
mp-1343327,AlAgO3,0.048099999999999005,0.279733864666666,-1.620883186
mp-1343733,AlAgO3,0.032,0.163016555333333,-1.7376004953333322
mp-8110,AlBO3,5.8392,0.030454673153846003,-3.118357856833333
mp-1344602,AlBiO3,0.9480000000000001,0.234789572749995,-2.3190562765
mp-23080,AlBiO3,1.585999999999999,0.12160923424999501,-2.432236615
mp-551918,AlBiO3,2.977899999999999,0.053335064249994006,-2.5005107850000012
mp-775763,AlBiO3,3.0001,0.078294178749994,-2.475551670500001
mp-10037,AlCo3C,0.0,0.021354330499999002,-0.20122812149999703
mp-1178576,AlCoO3,2.5603,0.031363284499999006,-2.309915378999999
mp-1248478,AlCoO3,0.0,0.250709234166665,-2.090569429333334
mp-1348445,AlCoO3,0.0,0.23883475983333202,-2.102443903666667
mp-1378752,AlCoO3,0.0,0.182023874999999,-2.159254788499999
mp-1386773,AlCoO3,0.0,0.256464872499999,-2.084813790999999
mp-754022,AlCoO3,0.8939,0.11607658149999901,-2.225202081999999
mp-756947,AlCoO3,0.827199999999999,0.10164703299999901,-2.239631630499999
mp-776216,AlCoO3,0.3481,0.10484106749999901,-2.236437595999999
mp-1251690,AlCrO3,1.1578,0.35214237549999905,-2.544427012999999
mp-1345463,AlCrO3,1.802899999999999,0.176285460999999,-2.7202839275
mp-1385937,AlCrO3,0.0,0.37491101949999805,-2.521658369
mp-1178579,AlCuO3,0.13490000000000002,0.10938641112500001,-2.029827841999999
mp-1253258,AlCuO3,0.0,0.166064832791666,-1.9731494203333342
mp-1347317,AlCuO3,0.0,0.18156041862500003,-1.957653834499999
mp-1412082,AlCuO3,0.0,0.20133596912499901,-1.937878284
mp-776172,AlCuO3,0.35000000000000003,0.083311382125,-2.055902871
mp-1206715,AlFe3B,0.0,0.16867368699999602,-0.146577185833332
mp-22793,AlFe3C,0.0,0.0,-0.159749470999999
mp-1206123,AlFe3H,0.0,0.0,-0.20500472224999902
mp-1206767,AlFe3N,0.0,0.323238184999998,-0.310164052999998
mp-1178577,AlFeO3,2.1792,0.032552852499998,-2.534268328
mp-1254277,AlFeO3,1.3295,0.280233170999999,-2.286588009499999
mp-1259818,AlFeO3,1.360799999999999,0.2106262885,-2.356194891999999
mp-1264966,AlFeO3,0.6687000000000001,0.23604759199999903,-2.3307735885
mp-1398131,AlFeO3,0.0,0.26554455049999903,-2.301276629999999
mp-21216,AlFeO3,1.9962,0.043955834999999006,-2.5228653455
mp-776154,AlFeO3,2.1089,0.08031608349999901,-2.486505096999999
mp-756686,AlGaO3,3.0761,0.107533476999998,-2.740240361500001
mp-772187,AlGaO3,3.4263999999999992,0.028743235249999003,-2.81903060325
mp-772898,AlGaO3,3.5313,0.027670599999999,-2.8201032384999998
mp-1178550,AlInO3,0.0,0.063033765999999,-2.647275431833333
mp-1183160,AlInO3,0.0,0.46780454750000006,-2.2425046503333332
mp-754157,AlInO3,2.162,0.034660067499999,-2.675649130333332
mp-504482,AlInS3,2.081299999999999,0.0,-1.002490066354166
mp-862787,AlInSe3,1.6333000000000002,0.0,-0.8639210584375001
mp-1246835,AlMoN3,1.4508,0.20413019479999903,-0.651638212999999
mp-1248370,AlMoO3,0.734799999999999,0.46363220374999803,-2.159343135000001
mp-1373731,AlMoO3,1.4177,0.17625915524999902,-2.4467161835
mp-1207084,AlNi3C,0.0,0.165907390499999,-0.175228431499998
mp-1228852,AlNi3Sb,0.0,0.201821444499998,-0.21045276899999601
mp-1333178,AlNiO3,0.0,0.359988354,-1.846172374333333
mp-1376903,AlNiO3,0.0,0.19308416283333402,-2.013076565499999
mp-1400395,AlNiO3,0.0,0.370515997333332,-1.835644731
mp-1178574,AlPdO3,0.0,0.116577814499999,-1.9729209909999992
mp-776116,AlPdO3,0.0,0.15571422949999802,-1.933784576
mp-1178547,AlRhO3,1.7659,0.038796595749999004,-2.223008536
mp-1079481,AlSBr3,0.147899999999999,0.361249582,-0.8531906474999991
mp-1183134,AlSbO3,1.1346,0.319599526000004,-2.269544728999999
mp-1261047,AlSbO3,3.9107000000000003,0.061852403500004004,-2.527291851499999
mp-1371447,AlSbO3,0.0,0.339868097500004,-2.249276157499999
mp-1374707,AlSbO3,1.2462,0.406103865000003,-2.18304039
mp-5168,AlSiP3,0.288599999999999,0.007223912499998,-0.373110040035714
mp-31220,AlSiTe3,1.2504,0.0,-0.332382315999998
mp-1248301,AlSnO3,0.0,0.429956209458335,-2.242107410666667
mp-1340379,AlSnO3,0.0,0.23543624212500203,-2.436627378
mp-768539,AlTlO3,1.208199999999999,0.075319551499999,-2.188174606166668
mp-1178549,AlVO3,1.569,0.019815870624997,-2.96073348
mp-1248251,AlVO3,1.679199999999999,0.151617486124996,-2.8289318645000012
mp-1384488,AlVO3,0.0,0.32760301362499705,-2.652946337
mp-756082,AlVO3,0.0,0.086443080124997,-2.894106270500001
mp-765647,AlVO3,1.1677,0.08873259612499601,-2.8918167545
mp-1246403,AlWN3,1.5971000000000002,0.32059491900000103,-0.629926407374998
mp-1046804,AlWO3,0.8598999999999991,0.285851663249996,-2.343923776999999
mp-755240,AsAuO3,0.357699999999999,0.11758776333333701,-1.0752385365000001
mp-27274,AsCF3,3.3193,0.49251551625000006,-1.290979925749998
mp-29863,AsCl3O,2.5284,0.0,-1.156071267499999
mp-1246423,BMoN3,1.0201,0.38113039279999905,-0.42771286283333304
mp-753806,BSbO3,3.762,0.048014838166666005,-2.226882067833333
mp-755829,BSbO3,3.7211,0.047189438666666,-2.227707467333334
mp-1013734,Ba3AsN,0.0,0.08112790405128101,-0.7428217785000001
mp-1013586,Ba3AsP,0.0,0.34367354575001,-0.6829273324285711
mp-1013563,Ba3BiAs,0.0,0.162350350538463,-0.8243075855
mp-1013549,Ba3BiN,0.0,0.056357219999997,-0.7924901430000001
mp-567666,Ba3BiN,0.6466000000000001,0.0,-0.8488473629999981
mp-1013691,Ba3BiP,0.0,0.101019504916662,-0.8450844469285711
mp-1013584,Ba3BiSb,0.0,0.336802108199997,-0.664411328
mp-1013719,Ba3BiSb,0.0,0.470977074199997,-0.530236362
mp-17833,Ba3GeO,0.15300000000000002,0.0,-1.439800085999998
mp-13288,Ba3LiN,0.0,0.027976386666667002,-0.307244143666667
mp-8868,Ba3NaN,0.0,0.0,-0.331969978275862
mp-1013533,Ba3PN,0.0,0.139411427333334,-0.6362765459285711
mp-1013562,Ba3SbAs,0.148699999999999,0.22783895273846203,-0.8547799735
mp-1013557,Ba3SbN,0.0,0.055228376999998004,-0.870384568999999
mp-12814,Ba3SbN,0.455499999999999,0.0,-0.9256129459999981
mp-1013737,Ba3SbP,0.299199999999999,0.156638863916667,-0.8819724669285711
mp-754940,Ba3SiO,0.0,0.05150425300000001,-1.265288455
mp-755363,Ba3SiO,0.421699999999999,0.0,-1.316792708000001
mp-29243,Ba3SnO,0.0,0.0,-1.531505142000002
mp-1183283,BaAlO3,0.0,0.16936120074999902,-2.895402251
mp-1183287,BaAuO3,0.0,0.19831959500000002,-1.464683951
mp-1227955,BaBiO3,0.0,0.022849193999999,-2.210577817
mp-22942,BaBiO3,0.0,1.743400000009387e-05,-2.233409576999999
mp-23438,BaBiO3,0.0,0.024886166999999,-2.208540844
mp-23482,BaBiO3,0.0,0.0008352050000010001,-2.232591805999997
mp-545783,BaBiO3,0.0,0.021211001999999,-2.212216009
mp-559051,BaBiO3,0.0,0.0,-2.233427010999999
mp-27365,BaBiSe3,0.9943999999999991,0.0,-1.3171996901562482
mp-1227982,BaCO3,4.1409,0.049050461000001,-2.6337288
mp-2506699,BaCO3,4.4436,0.015460144000002,-2.667319116999999
mp-2626703,BaCO3,4.1813,0.043856836000002,-2.638922424999999
mp-34195,BaCO3,4.354299999999999,0.035359590000001,-2.647419671
mp-4559,BaCO3,4.3635,0.021844735000001003,-2.6609345259999992
mp-545643,BaCO3,3.976,0.104496795000001,-2.578282466
mp-5504,BaCO3,4.397399999999999,0.0,-2.682779261000001
mp-674478,BaCO3,4.159499999999999,0.049906871000001005,-2.63287239
mp-675324,BaCO3,4.0966,0.07582380200000201,-2.606955458999999
mp-676020,BaCO3,4.0287,0.033765908000001,-2.649013353000001
mp-762225,BaCO3,4.474,0.013236834000001,-2.669542427
mp-1183285,BaCaO3,0.0,0.344531053999998,-2.279992301
mp-583645,BaCaSn3,0.0,0.001525398249998,-0.608299799749999
mp-1227962,BaCd3Ga,0.0,0.001069449,-0.274422421499998
mp-1183292,BaCdO3,0.0,0.202881038,-1.6376950989999992
mp-3187,BaCeO3,2.2207,0.0,-3.589836753000001
mp-3316,BaCeO3,2.2112,0.000642611000001,-3.589194142000001
mp-4900,BaCeO3,2.2279,0.0025211640000000002,-3.587315589
mp-5663,BaCeO3,2.299,0.040333896000001,-3.5495028570000002
mp-1182237,BaClO3,0.0,0.496639524159996,-1.212395542
mp-1076782,BaCoO3,0.0,0.22222526900000003,-1.8256327430000001
mp-1283250,BaCoO3,1.1424,0.0010551950000010002,-2.046802816999999
mp-18965,BaCoO3,0.0,0.0,-2.047858012
mp-19271,BaCrO3,0.0,0.294836223625002,-2.325464904
mp-540926,BaCrO3,0.0,0.083786614625002,-2.536514513000001
mp-557081,BaCrO3,0.0,0.081652054339287,-2.538649073285715
mp-1076800,BaCuO3,0.0,0.08273291958333401,-1.663166091
mp-1183286,BaDyO3,0.0,0.10872087100000001,-3.117626003333332
mp-1183291,BaErO3,0.0,0.08670264150000201,-3.164587624999998
mp-1183310,BaEuO3,0.0,0.16508361100000002,-2.773289008
mp-1192651,BaFeO3,0.0,0.0,-2.1502811303333322
mp-19035,BaFeO3,0.0,0.048024622666666,-2.102256507666665
mp-705845,BaFeO3,0.0,0.46098499733333204,-1.6892961329999991
mp-1227967,BaGa3Sn,0.0,0.0193654795,-0.4075560295
mp-1069708,BaGe3Ir,0.0,0.0,-0.524893118999997
mp-1068447,BaGe3Pd,0.0,0.0,-0.570319616999999
mp-22346,BaGe3Pt,0.0,0.0,-0.632367121
mp-1070247,BaGe3Rh,0.0,0.0,-0.562918800999997
mp-1227958,BaGeAu3,0.0,0.0,-0.511960961000002
mp-1016823,BaGeO3,0.0,0.2323634095,-2.463637802000001
mp-13863,BaGeO3,3.5519,0.0,-2.696001211500001
mp-2901869,BaGeO3,2.2342,0.32623320983333304,-2.369768001666667
mp-676865,BaGeO3,1.4284000000000001,0.45118400616666604,-2.244817205333333
mp-1195469,BaGeS3,2.4497,0.0,-1.433299476249995
mp-998552,BaHfO3,3.5394,0.0,-3.786714650999999
mp-1105549,BaHfS3,1.252399999999999,0.0,-2.139777798999998
mp-1383356,BaHfS3,0.8329000000000001,0.028262704499998,-2.111515094499999
mp-998352,BaHfS3,0.8438999999999991,0.028355060499999002,-2.111422738499999
mp-998419,BaHfS3,0.866499999999999,0.007506210999999,-2.132271587999999
mp-1227995,BaIn3Pt,0.0,0.0023114265000010003,-0.529825909999996
mp-1183288,BaInO3,0.0,0.077204864750004,-2.162446134333333
mp-1227991,BaInO3,0.0,0.09766280675000401,-2.141988192333333
mp-4307,BaIrO3,0.0,0.047177416625011,-1.975938002
mp-542897,BaIrO3,0.0,0.016256119291678,-2.006859299333334
mp-5660,BaIrO3,0.0,0.14323426162501102,-1.879881156999999
mp-10250,BaLiF3,6.564299999999999,0.021903220000002003,-3.741441043666666
mp-23818,BaLiH3,2.2146,0.0,-0.6094920114166651
mp-1183284,BaLiO3,0.0,0.308695114999993,-1.653488577666667
mp-1227881,BaMgIn3,0.0,0.0,-0.33987546900000004
mp-1016852,BaMnO3,0.0,0.133739453666667,-2.356205420586207
mp-1205336,BaMnO3,1.8948,0.007626374666666,-2.482318499586207
mp-18840,BaMnO3,0.8952999999999991,0.0,-2.489944874252874
mp-19156,BaMnO3,0.0,0.0077746981666670005,-2.482170176086207
mp-19267,BaMnO3,2.0901,0.005607107666667,-2.484337766586208
mp-35078,BaMnO3,0.7543000000000001,0.013227351166666,-2.476717523086208
mp-557535,BaMnO3,0.8359000000000001,0.0012205596666660001,-2.4887243145862072
mp-675227,BaMnO3,0.8679000000000001,0.001781733466666,-2.488163140786207
mp-757501,BaMnO3,0.0,0.005214321999998,-2.484730552252875
mp-19322,BaMoO3,0.0,0.0,-2.5167960949999992
mp-569812,BaN3Cl,4.078699999999999,0.087003804500001,-1.028977612
mp-3020,BaNbO3,0.0,0.0,-3.178754561000029
mp-35143,BaNbS3,0.0,0.0030931841538460003,-1.746531285499999
mp-754307,BaNdO3,0.0,0.11587030125000002,-2.994579430499999
mp-755877,BaNdO3,0.0,0.17852335125000002,-2.9319263804999993
mp-1096852,BaNiCl3,0.0,0.290261046000002,-1.8016715189999992
mp-1120765,BaNiO3,0.0,0.12427227400000002,-1.695750199
mp-19138,BaNiO3,1.469199999999999,0.0,-1.8200224730000012
mp-19241,BaNiO3,1.5157,8.089700000013522e-05,-1.8199415760000002
mp-11879,BaNiSn3,0.0,0.0,-0.47532961299999804
mp-8558,BaNpO3,0.0,0.0,-3.376933662750002
mp-781625,BaOsO3,0.0,0.08043483300000001,-2.039047280999999
mp-11006,BaPS3,3.1164,0.0,-1.474063243928571
mp-11008,BaPSe3,2.1651,0.0,-1.294053817834819
mp-8557,BaPaO3,0.0,0.0,-3.563953094999999
mp-1178510,BaPdO3,0.0,0.028700658499995,-1.685291061
mp-22705,BaPrO3,0.0,0.10705341450000001,-2.974917451833333
mp-4783,BaPrO3,0.0,0.19082811099999902,-2.891142755333334
mp-6909,BaPrO3,0.0,0.11221457199999901,-2.969756294333334
mp-6910,BaPrO3,0.0,0.11814818900000001,-2.963822677333333
mp-1183290,BaPtO3,0.0,0.099315742266672,-1.712383318999999
mp-1214788,BaPtO3,0.41589999999999905,0.0047150411238150005,-1.8069840201428562
mp-505025,BaPuO3,0.0,0.0,-3.34406189474999
mp-7143,BaPuO3,0.0,0.024340283999991,-3.319721610749997
mp-989637,BaReN3,1.7855,0.0,-0.6977909885000171
mp-1183298,BaReO3,0.0,0.13636216450000802,-2.3711194475
mp-1016850,BaRhO3,0.0,0.098336171296297,-1.914429825
mp-7685,BaRhO3,0.0,0.015493725796298001,-1.997272270499999
mp-1017591,BaRuO3,0.0,0.06870543149999901,-2.121449641
mp-3597,BaRuO3,0.0,0.0,-2.1901550725
mp-3598,BaRuO3,0.0,0.025915977166667003,-2.164239095333334
mp-5773,BaRuO3,0.0,0.0019360621666670002,-2.188219010333334
mp-768307,BaSO3,4.4264,0.06942532750000001,-2.599932525499999
mp-18291,BaSbTe3,0.620699999999999,0.0,-1.041214254999998
mp-1183289,BaScO3,0.0,0.026701069166656002,-3.207111031999999
mp-6989,BaSeO3,3.886599999999999,0.0,-2.318079119468748
mp-1070137,BaSi3Pd,0.0,0.0,-0.43619774400000305
mp-1069809,BaSi3Pt,0.0,0.0020814485000010003,-0.553016668
mp-12958,BaSiO3,3.0454,0.294701016333331,-3.1093121896666682
mp-18407,BaSiO3,2.1249000000000002,0.40856721899999904,-2.995445987000001
mp-7339,BaSiO3,4.5344999999999995,0.022031850500000002,-3.3819813555
mp-776076,BaSiO3,4.9408,0.038919864249999006,-3.365093341749999
mp-776084,BaSiO3,4.6708,0.0,-3.404013206000001
mp-1068048,BaSn3Au,0.0,0.0,-0.502566114999997
mp-11269,BaSn3Pd,0.0,0.0,-0.6468947850000021
mp-30433,BaSn3Pt,0.0,0.0,-0.681184819000002
mp-1178513,BaSnO3,0.665099999999999,0.0006460229999980001,-2.586822249000001
mp-3163,BaSnO3,0.372399999999999,0.0,-2.587468271999999
mp-1183370,BaSnS3,0.8569,0.015674842611113002,-1.394803844999997
mp-1214332,BaSrBi3,0.0,0.0,-0.738515049499997
mp-754678,BaTaO3,0.0,0.03255764930669,-3.269091094466667
mp-4001,BaTaS3,0.0,0.0,-1.7826291849666651
mp-1078588,BaTaSe3,0.0,0.040600375999998,-1.562408675872915
mp-1182811,BaTbO3,0.0,0.10617699875000002,-3.108947081333333
mp-20129,BaTbO3,0.0,0.090803419749999,-3.124320660333333
mp-2929,BaTbO3,0.0,0.12044266375000001,-3.094681416333332
mp-2939,BaTbO3,0.0,0.09739728474999901,-3.117726795333334
mp-548824,BaTbO3,0.0,0.093177259749999,-3.121946820333333
mp-5735,BaTbO3,0.0,0.09176680975000001,-3.123357270333334
mp-555174,BaTcO3,0.0,0.0,-2.4663650413333382
mp-5431,BaTeO3,2.7149,0.0,-2.357057434333336
mp-556021,BaTeO3,3.256199999999999,0.009339549666671,-2.347717884666667
mp-27499,BaTeS3,1.9088,0.0,-1.189533620333334
mp-1189614,BaThO3,4.047,0.0,-3.7750959409999982
mp-8037,BaThO3,3.2033,0.083406089999998,-3.691689850999999
mp-2998,BaTiO3,1.666299999999999,0.014779579999968002,-3.477498397666666
mp-5020,BaTiO3,2.5086999999999993,4.098999996848818e-05,-3.492236987666666
mp-558125,BaTiO3,2.0811,0.001296830333302,-3.490981147333332
mp-5777,BaTiO3,2.2929999999999993,0.0,-3.492277977666666
mp-5933,BaTiO3,1.726099999999999,0.00261944199997,-3.4896585356666643
mp-5986,BaTiO3,1.727999999999999,0.00195657399997,-3.490321403666664
mp-7073,BaTiS3,0.0,0.006230596999996001,-1.945466765166667
mp-1079893,BaTiSe3,0.0,0.0,-1.770214763072915
mp-1227345,BaTl3Au,0.0,0.013759600333332001,-0.32651352800000405
mp-1227390,BaTlIn3,0.0,0.012278902500000001,-0.30696890666666704
mp-1183393,BaTlO3,0.0,0.119237046250003,-1.698419363666668
mp-1183394,BaTmO3,0.0,0.07260766408333301,-3.193704981000002
mp-35730,BaUO3,0.0,0.0,-3.486460204999997
mp-3601,BaUS3,0.0,0.0,-2.022008931999984
mp-1017465,BaVO3,0.0,0.11491591899997701,-2.790472743000001
mp-19150,BaVO3,0.0,0.075138658999977,-2.830250003000001
mp-3451,BaVS3,0.0,0.0,-1.669534512499999
mp-4227,BaVS3,0.0,0.014206899999999,-1.6553276125
mp-542818,BaVS3,0.0,0.014276420000000001,-1.6552580924999991
mp-555857,BaVS3,0.0,0.0037891650000020003,-1.665745347499997
mp-27363,BaVSe3,0.0,0.037731502999997,-1.47955654840625
mp-676597,BaVSe3,0.0,0.022669552999997,-1.4946184984062492
mp-989622,BaWN3,1.505,0.0,-0.8219546254999991
mp-989636,BaWN3,1.093799999999999,0.0100144745,-0.811940151
mp-1183395,BaWO3,0.0,0.158416016499995,-2.463760293
mp-1183406,BaYbO3,0.0,0.135584711416665,-3.051083985250002
mp-1227349,BaZnIn3,0.0,0.0,-0.34481708599999705
mp-1183405,BaZnO3,0.0,0.17429412799999602,-1.844181115
mp-1019544,BaZrO3,3.1163,0.0,-3.639240691