material_id,formula,band_gap,e_hull,formation_energy
mp-754318,MnZnO3,1.7946,0.005794234000003001,-1.813649822586207
mp-772528,MnZnO3,0.12040000000000001,0.098382452000003,-1.721061604586207
mp-1221539,MoBr3O,0.9067000000000001,0.0,-1.151260577499999
mp-23528,MoCl3O,2.4544,0.082727749692851,-1.4063811715
mp-1221516,MoHO3,0.7623000000000001,0.090476670107137,-1.67037852725
mp-23396,MoNCl3,1.6768,0.0,-1.09528815100001
mp-1247498,MoRuN3,0.09489999999999901,0.325484339799999,0.10311816999999901
mp-1247512,MoWN3,0.0,0.38469785779999904,-0.160692939999999
mp-1180300,NClO3,2.0014,0.096921773000019,-0.424675328
mp-754712,NClO3,3.0976,0.0,-0.521597101000009
mp-985586,Na3BrO,1.8815,0.0,-1.615873120827586
mp-28602,Na3ClO,2.0299,0.0,-1.6976095178275852
mp-769398,Na3IO,1.6831,0.004069657333332,-1.452116121494253
mp-1186101,NaAgO3,0.0,0.395609302999998,-0.40695186160919405
mp-1186097,NaAlO3,0.0,0.21697979450000102,-2.126357671275862
mp-17868,NaAsO3,2.8628,0.0,-1.8849056684425292
mp-976133,NaAsO3,0.0,0.304430911666667,-1.5804747567758621
mp-28614,NaBPt3,0.0,0.0,-0.5153459865000001
mp-23729,NaBeH3,0.9148000000000001,0.126078056833335,-0.147174734025861
mp-976185,NaBeO3,0.0,0.45979896599999903,-1.325980552275861
mp-23054,NaBiO3,1.096399999999999,0.0,-1.580260707275866
mp-1189541,NaBrO3,4.5929,0.132193780999999,-0.866867695275862
mp-23339,NaBrO3,4.4812,0.0,-0.9990614762758611
mp-608595,NaBrO3,0.08079999999999901,0.4984734565,-0.5005880197758621
mp-1120755,NaCO3,0.6623,0.0,-1.7872486782758612
mp-727242,NaCO3,0.6705999999999991,0.0018082339999980002,-1.785440444275862
mp-1078750,NaCaH3,1.9793999999999992,0.064464225,-0.452825835749999
mp-1078933,NaCaH3,3.312,0.070386957,-0.44690310374999903
mp-4360,NaCdF3,3.482,0.0,-2.660950373275862
mp-976293,NaCdO3,0.0,0.474934275,-0.6081634612758621
mp-1180278,NaClO3,1.202199999999999,0.41308131024999906,-0.7007897527758621
mp-23330,NaClO3,5.633199999999999,0.034847359249999,-1.082864028810345
mp-2720358,NaClO3,6.3141,0.029885637749999003,-1.083985425275862
mp-555726,NaClO3,5.7061,0.068452242749999,-1.045418820275862
mp-1078336,NaCoF3,2.2744,0.005047057999999,-2.591767488275862
mp-21404,NaCoF3,2.9522,0.0,-2.596814546275862
mp-1186126,NaCoO3,0.0,0.22247671974999902,-1.059370683275862
mp-1076642,NaCrO3,0.0,0.29644677833333505,-1.708139925275861
mp-17869,NaCuF3,0.080899999999999,0.0,-2.3130719495
mp-505085,NaCuF3,0.0,0.004311252000000001,-2.3087606975
mp-1078217,NaFeF3,2.2462,0.0,-2.737641432275862
mp-505066,NaFeF3,1.8013,0.00041483750000000005,-2.737226594775862
mp-1186134,NaFeO3,0.0,0.145586834999998,-1.292712711275861
mp-754915,NaFeO3,0.0,0.055216262999998,-1.383083283275861
mp-13674,NaGeAu3,0.0512,0.0,-0.266376418249996
mp-1186133,NaGeO3,0.0,0.23410438249999901,-1.694647066275862
mp-608490,NaHgCl3,2.5331,0.055224328999997005,-1.170227544500005
mp-22989,NaIO3,3.6962,0.0,-1.318583879275863
mp-559252,NaIO3,3.395599999999999,0.13328705200000301,-1.185296827275862
mp-1186138,NaInO3,0.0,0.40909349099999903,-1.174024876609195
mp-1079568,NaIrO3,0.0,0.0,-1.4718721862758621
mp-975990,NaLiO3,0.0,0.46971100400000004,-0.7349942879425281
mp-3346580,NaMgCl3,5.270399999999999,0.0059706804166710006,-2.058663398500001
mp-12948,NaMgF3,6.620699999999999,0.031401027500000005,-3.475622605
mp-2955,NaMgF3,6.7529,0.0,-3.5070236325
mp-560399,NaMgF3,5.9262000000000015,0.041647802499999005,-3.465375830000001
mp-23730,NaMgH3,3.103,0.0,-0.29704166152586103
mp-976775,NaMgO3,0.0,0.37349236900000005,-1.386468496275862
mp-27176,NaMnCl3,0.27289999999999903,0.004151162333338,-1.764314634396551
mp-560242,NaMnF3,2.7474,0.0,-2.964065348862068
mp-1040471,NaMoO3,0.0,0.096339849000002,-2.014921025275862
mp-998627,NaMoO3,0.0,0.088243832000002,-2.023017042275861
mp-1173585,NaNO3,2.7742,0.012939741000000001,-1.350257228275862
mp-1220986,NaNO3,2.8579,0.011083451000000001,-1.352113518275862
mp-2767672,NaNO3,3.0097,0.0,-0.994613893
mp-3346497,NaNO3,3.5713,0.0012383167500000002,-0.9933755762499991
mp-4531,NaNO3,2.9451,0.0,-1.363196969275862
mp-674297,NaNO3,2.571399999999999,0.009446822,-1.353750147275862
mp-1078295,NaNbO3,3.837399999999999,0.003141929999998,-2.841680835275861
mp-1105765,NaNbO3,1.865,0.025218161999998,-2.819604603275862
mp-1188528,NaNbO3,2.3501,0.0028805844999970002,-2.8419421807758622
mp-1189194,NaNbO3,1.660699999999999,0.029542810499997,-2.8152799547758622
mp-1190015,NaNbO3,2.232599999999999,0.0036448904999980005,-2.841177874775861
mp-1194823,NaNbO3,1.7196,0.025033965999996,-2.8197887992758632
mp-1195803,NaNbO3,1.654799999999999,0.025354434666665003,-2.819468330609196
mp-1198142,NaNbO3,1.7321,0.028361900499996002,-2.816460864775863
mp-1199037,NaNbO3,1.7575,0.042480686749998005,-2.802342078525861
mp-1199593,NaNbO3,1.6316000000000002,0.032703676874998006,-2.812119088400861
mp-1203293,NaNbO3,1.8049,0.024570768499998,-2.820251996775863
mp-1977728,NaNbO3,1.6644,0.029408212999998,-2.815414552275862
mp-3136,NaNbO3,1.5249000000000001,0.044339023999997,-2.800483741275862
mp-3671,NaNbO3,2.3565,0.0017411069999990001,-2.843081658275861
mp-4419,NaNbO3,1.5604,0.030859024999998003,-2.8139637402758613
mp-4514,NaNbO3,2.5048,0.0,-2.844822765275861
mp-4681,NaNbO3,2.3684,0.0024077749999980003,-2.842414990275862
mp-4748,NaNbO3,1.681,0.026700738999998003,-2.818122026275862
mp-558920,NaNbO3,2.4098,0.001815199499999,-2.843007565775861
mp-559354,NaNbO3,2.0583,0.039167725499998,-2.805655039775862
mp-1078237,NaNiF3,5.1242,0.005519014499999001,-2.552293871
mp-561480,NaNiF3,0.0,0.0,-2.557812885499999
mp-1186154,NaNiO3,0.0,0.320827803500001,-0.745677687275861
mp-1040464,NaOsO3,0.0,0.035054636499999,-1.6154962292758621
mp-1105218,NaOsO3,0.0,0.0,-1.6505508657758612
mp-998624,NaOsO3,0.0,0.009487059,-1.6410638067758612
mp-35683,NaPF3,0.9889000000000001,0.44869017640000103,-2.122639599838094
mp-4734,NaPO3,5.208699999999999,0.012073410750000001,-2.633496923121101
mp-555118,NaPO3,5.081,0.008861134166666,-2.636709199704434
mp-558192,NaPO3,5.158,0.007900110499999,-2.637670223371102
mp-648053,NaPO3,4.8428,0.039140271666668,-2.606430062204433
mp-648072,NaPO3,4.8406,0.059120867166668006,-2.5864494667044333
mp-864891,NaPO3,5.1185,0.0,-2.645570333871101
mp-1189520,NaPS3,1.988,0.0,-0.8659379022044321
mp-865120,NaPaO3,2.952,0.0,-3.440691451275864
mp-1220961,NaPdF3,0.2924,0.002678903750004,-2.043136394
mp-976968,NaPdO3,0.0,0.26455347162500004,-0.768164637275862
mp-976952,NaPuO3,0.0,0.0,-2.82845516902586
mp-976923,NaReO3,0.0,0.041938695600001005,-2.072553317775862
mp-977107,NaRuO3,0.0,0.089076717374999,-1.518621671275862
mp-20011,NaSbO3,1.4696,0.055137247000001006,-2.001695280275862
mp-22212,NaSbO3,1.274,0.09189561500000001,-1.9649369122758622
mp-4482,NaSbO3,2.7012,0.0,-2.056832527275863
mp-752755,NaSbO3,1.438,0.036836098499999005,-2.019996428775863
mp-760994,NaSbO3,2.2389,0.065655286666667,-1.9911772406091952
mp-1197679,NaSeO3,0.333,0.194034118000001,-1.3772535982446121
mp-728664,NaSeO3,3.097299999999999,0.074092650749999,-1.497195065494612
mp-13673,NaSiAu3,0.0,0.0,-0.304091855999996
mp-1186167,NaSiO3,0.0,0.25805614525000303,-2.354524145275862
mp-3858,NaTaO3,2.6172,0.0,-3.062992296242529
mp-4170,NaTaO3,2.2603,0.027754129499998004,-3.03523816674253
mp-4675,NaTaO3,2.2798,0.0093388935,-3.053653402742529
mp-4699,NaTaO3,2.3891,0.0033295580000000003,-3.059662738242528
mp-676280,NaTaO3,3.4067,0.09564892800000101,-2.967343368242528
mp-754818,NaTaO3,2.713899999999999,0.086757806500001,-2.976234489742528
mp-977176,NaTcO3,0.0,0.0,-1.972065040275862
mp-977117,NaTeO3,0.0,0.132665316062498,-1.583567150609195
mp-1120777,NaTiF3,0.0,0.23502901877777302,-2.919718483942529
mp-977123,NaTiO3,0.0,0.08988452819999401,-2.639808749942529
mp-5788,NaUO3,0.43100000000000005,0.0,-3.287362495775843
mp-1120756,NaVF3,2.020699999999999,0.0,-3.017998288
mp-20572,NaVF3,0.6978000000000001,0.09134990799999901,-2.92664838
mp-1099591,NaVO3,0.21679999999999902,0.141920087,-2.233827591275862
mp-1101657,NaVO3,3.2243,0.0428729455,-2.332874732775862
mp-19083,NaVO3,3.2386,0.0,-2.375747678275863
mp-555665,NaVO3,3.0358,0.005755477500000001,-2.369992200775863
mp-763901,NaVO3,3.201699999999999,0.043013442000000006,-2.332734236275862
mp-19328,NaWO3,0.0,0.05530045630435201,-2.106962365275861
mp-3795,NaZnF3,3.7676,0.0,-2.755012105000001
mp-1180211,NaZnO3,0.0,0.34598868675000105,-0.9150081555258611
mp-1186198,NaZnO3,0.0,0.412060198999999,-0.848936643275862
mp-1220590,Nb3SnH,0.0,0.0,-0.27905804774999804
mp-1220523,Nb3ZnAu,0.0,0.04537543599999801,-0.07930530000000001
mp-1203481,NbAgO3,1.7362000000000002,0.039513492535716004,-2.179120357083332
mp-1205362,NbAgO3,0.9891999999999991,0.050805722285715005,-2.167828127333333
mp-1220387,NbAgO3,1.024299999999999,0.053432297285715004,-2.165201552333332
mp-12725,NbAgO3,1.3336000000000001,0.07085392228571501,-2.147779927333332
mp-2349989,NbAgO3,0.9214,0.06677289328571501,-2.151860956333333
mp-5537,NbAgO3,1.4737,0.038442153035715,-2.180191696583333
mp-557680,NbAgO3,0.8148999999999991,0.07065923028571401,-2.147974619333333
mp-1206988,NbBRh3,0.0,0.23062063333333002,-0.26951732583333204
mp-1186216,NbBiO3,0.0,0.42639618981578403,-1.999815811000001
mp-1220556,NbBr3O,1.9457,0.0,-1.8194817360000002
mp-606393,NbBr3O,1.9659,3.51775000009269e-05,-1.819446558499999
mp-27815,NbCl3O,2.401799999999999,0.006079836999999,-2.123578889
mp-556422,NbCl3O,2.8075,0.0,-2.129658726
mp-1079356,NbCrN3,0.0,0.422078142399996,-0.40575859971111106
mp-17272,NbCuO3,0.9590000000000001,0.017718185285717003,-2.2995771384999992
mp-33932,NbHO3,2.6221,0.033637553535713,-2.474307036749999
mp-626528,NbHO3,2.531,0.045080743035713,-2.46286384725
mp-626536,NbHO3,0.0005,0.078734162035711,-2.429210428249999
mp-546285,NbI3O,0.8196000000000001,0.0,-1.405361576999995
mp-1247545,NbMoN3,0.0,0.189774252400003,-0.5634068119999991
mp-1220398,NbMoS3,0.0,0.06579250216667301,-1.182717036499998
mp-1220396,NbMoSe3,0.0,0.08549858033334701,-0.7577765071041591
mp-1094112,NbOF3,4.2198,0.20720326999999902,-3.0856191369999992
mp-1101450,NbOF3,2.0803,0.088397976999999,-3.204424429999999
mp-2767167,NbOF3,4.1307,0.049741806500001005,-3.243080600499998
mp-753785,NbOF3,3.2629,0.033699998999999,-3.259122407999999
mp-753800,NbOF3,3.6991,0.011370697499998,-3.2814517095
mp-760762,NbOF3,3.7013,0.0,-3.292822406999999
mp-762371,NbOF3,3.9131,0.0869712145,-3.2058511925
mp-22351,NbRu3C,0.0,0.170165434749999,-0.056091815916667
mp-23498,NbSeBr3,0.736399999999999,0.0,-1.26132560496875
mp-570270,NbSeCl3,0.7559,0.0,-1.245848912812499
mp-541817,NbSeI3,0.627,0.0,-0.852683505468748
mp-28038,NbTeBr3,0.5947,0.0,-1.175170097333334
mp-540924,NbTeI3,0.45779999999999904,0.0,-0.7703017873333311
mp-1101462,NbTlO3,0.9465000000000001,0.0013711412499980001,-2.451774461666669
mp-757636,NbTlO3,0.9550000000000001,0.0,-2.453145602916668
mp-977408,NbTlO3,0.1116,0.090674097249999,-2.362471505666668
mp-1247532,NbWN3,0.0,0.103244425399999,-0.693836001725
mp-571330,Nd3AlC,0.0,0.026321534,-0.28244175450000103
mp-20385,Nd3InC,0.0,0.0,-0.47341123649999806
mp-21022,Nd3InN,0.0,0.0,-1.046397588249999
mp-1094085,Nd3SnN,0.0,0.0,-1.0218133365
mp-1069375,NdAl3Cu,0.0,0.0,-0.518551503499999
mp-14254,NdAlO3,2.863600000000001,0.027490916999999,-3.644979264499999
mp-5899,NdAlO3,4.353999999999999,0.0,-3.672470181499999
mp-13514,NdBO3,5.0694,0.0013575665000010002,-3.465548755833333
mp-7238,NdBO3,4.6987,0.0,-3.466906322333334
mp-10120,NdBPd3,0.0,0.11133466173333201,-0.557739431333332
mp-11597,NdBPt3,0.0,0.0,-0.8671155033333341
mp-3591,NdBRh3,0.0,0.0,-0.696287231333332
mp-1188683,NdBS3,2.3963,0.000999158029999,-1.5466769068333321
mp-975579,NdBeO3,0.0,0.26662335999999903,-2.870313715499999
mp-14625,NdCoGe3,0.0,0.0,-0.5622354905
mp-20031,NdCoO3,0.7914000000000001,0.07815874399988801,-2.442810628499999
mp-22599,NdCoO3,0.0,0.0,-2.520969372499943
mp-570956,NdCoSb3,0.0,0.010133487500002,-0.6418295726666571
mp-1069204,NdCoSi3,0.0,0.0,-0.6135868985
mp-13008,NdCrGe3,0.0,0.035463481499999006,-0.403187484333332
mp-19062,NdCrO3,1.904,0.143114159500001,-2.9987285885
mp-19269,NdCrO3,2.54,0.0,-3.141842748000002
mp-15931,NdCrS3,0.0,0.0,-1.685189645499999
mp-1209908,NdCrSb3,0.0,0.012437005499990002,-0.588394532999998
mp-864797,NdCrSe3,0.0,0.0,-1.489497070406249
mp-1173386,NdCuO3,0.12299999999999901,0.0,-2.383346918999999
mp-20407,NdFeO3,1.7349,0.0,-2.776405970499999
mp-1201926,NdFeSb3,0.0,0.018744906613640002,-0.6005669652499991
mp-569211,NdFeSb3,0.0,0.035754771030307005,-0.583557100833331
mp-1220217,NdGa3Ag,0.0,0.021206871666663,-0.49032001083331506
mp-1220156,NdGa3Au,0.0,0.0,-0.5991544979999951
mp-1220168,NdGa3Cu,0.0,0.0,-0.5747703575
mp-1220163,NdGa3Ni,0.0,0.044165608999998,-0.535377591999999
mp-1220188,NdGa3Ni,0.0,0.0,-0.6601548754999981
mp-1220159,NdGa3Pd,0.0,0.0,-0.687125955999998
mp-1220160,NdGa3Pt,0.0,0.0,-0.724150048000004
mp-3196,NdGaO3,3.452499999999999,0.033597412833332,-3.053719460000001
mp-975347,NdGeO3,0.0,0.45550857174999404,-2.4914131235
mp-1212693,NdIn3Pt,0.0,0.024338938435894002,-0.5812885024999981
mp-1186316,NdInO3,1.646799999999999,0.42484623274999905,-2.462961131833332
mp-755138,NdInO3,2.653299999999999,0.014723044250000001,-2.873084320333331
mp-1209937,NdLuO3,4.8869,0.022672726374997003,-3.929992729833333
mp-1080801,NdLuS3,0.805199999999999,0.0,-2.393805068520831
mp-1205870,NdLuS3,0.700499999999999,0.137041506999999,-2.25676356152083
mp-13327,NdLuSe3,0.49560000000000004,0.0,-2.18705656127083
mp-975521,NdMgO3,0.0,0.27795437300000003,-2.8331640494999992
mp-1232174,NdMgS3,0.2931,0.38733405550000405,-1.521386210999998
mp-1232282,NdMgSe3,0.0,0.38066373150000304,-1.372877774906249
mp-1232357,NdMgSe3,0.0,0.28584535050000204,-1.467696155906249
mp-1189476,NdMnO3,0.0,0.011342368500001001,-2.9521364435862063
mp-20852,NdMnO3,1.8980000000000001,0.0,-2.963478812086206
mp-1079171,NdNiGe3,0.0,0.0,-0.597557232500001
mp-22106,NdNiO3,0.0,0.0,-2.425266711
mp-571167,NdNiSb3,0.0,0.0,-0.733633896999992
mp-16287,NdRh3C,0.0,0.017177082333329003,-0.385634338500001
mp-4582,NdRhO3,0.6487,0.0,-2.495162424000007
mp-31117,NdScO3,4.3025,0.0,-3.896463977999999
mp-1105614,NdScS3,1.859299999999999,0.0,-2.296833537187498
mp-1070369,NdSi3Ir,0.0,0.0,-0.8632822704999991
mp-1068775,NdSi3Os,0.0,0.0,-0.661911826500002
mp-1070321,NdSi3Rh,0.0,0.0,-0.798266127499999
mp-1069041,NdSi3Ru,0.0,0.005464831000001001,-0.712026257500002
mp-1206778,NdSiPt3,0.0,0.0,-1.055389293499996
mp-1198161,NdSn3Ru,0.0,0.0,-0.47731537125000106
mp-1186324,NdTaO3,0.0,0.43785895121336005,-2.9749601119666673
mp-3119,NdTiO3,0.0,0.042002469499996004,-3.566930537166667
mp-1197152,NdTmS3,0.638999999999999,0.0018880555833290001,-2.388258648937497