material_id,formula,band_gap,e_hull,formation_energy
mp-1173461,SmVSb3,0.0,0.291217202750001,-0.346280063583324
mp-1208885,SmVSb3,0.0,0.005095534249999,-0.6324017320833261
mp-755685,SmYO3,4.2852,0.06382654999999801,-3.844085645
mp-772724,SnBO3,2.417099999999999,0.090524666562503,-2.273767179333333
mp-1101394,SnGeO3,2.5993999999999993,0.14274846199999602,-1.8031258970000001
mp-1187065,SnGeO3,0.0,0.31299769599999705,-1.632876662999999
mp-769144,SnGeO3,2.281099999999999,0.039728433999997,-1.9061459250000001
mp-5045,SnGeS3,1.6591,0.0,-0.684868667
mp-1016837,SnHgO3,0.0,0.33883970349999704,-1.179672492500001
mp-13554,SnHgO3,0.0,0.064994941499996,-1.453517254500001
mp-726037,SnPO3,0.5198,0.31074751411426504,-1.925782937928572
mp-1079752,SnPS3,1.032599999999999,0.045626536999996005,-0.36161305478273903
mp-1080140,SnPS3,1.0053,0.045655366999996005,-0.36158422478274005
mp-13923,SnPS3,2.1301,0.0,-0.40723959178273605
mp-4252,SnPS3,1.8226,0.007036181999996001,-0.40020340978274005
mp-570370,SnPSe3,1.497399999999999,0.0020492274999970002,-0.288478995032735
mp-5706,SnPSe3,1.348599999999999,0.003215800499988,-0.28731242203274404
mp-673705,SnPSe3,0.5105000000000001,0.17814743749998901,-0.11238078503274301
mp-1013555,Sr3AsN,0.4218,0.0,-1.052059000250003
mp-1013532,Sr3AsP,0.0,0.49071674691666606,-0.7607700471369071
mp-1013553,Sr3AsP,0.0,0.288815116916667,-0.962671677136904
mp-1013564,Sr3BiAs,0.0,0.115534188749999,-1.060178490166669
mp-570008,Sr3BiN,0.256899999999999,0.0,-1.04296567675
mp-1013643,Sr3BiP,0.0,0.044351434875000005,-1.095449884170227
mp-1013585,Sr3BiSb,0.0,0.310150757,-0.6675142980000001
mp-1013706,Sr3BiSb,0.0,0.457995017,-0.519670038
mp-30950,Sr3GeO,0.31880000000000003,0.0,-1.5590189605
mp-1013554,Sr3PN,0.519699999999999,0.0,-0.95271940134524
mp-1013561,Sr3SbAs,0.127999999999999,0.18153413675000102,-0.9112094495
mp-7752,Sr3SbN,0.25769999999999904,0.0,-1.027945077000001
mp-1013588,Sr3SbP,0.34189999999999904,0.096171923805556,-0.9584227269285711
mp-30949,Sr3SiO,0.4234,0.0,-1.443864567499999
mp-7961,Sr3SnO,0.0,0.0,-1.6425350619999999
mp-979294,SrAgO3,0.0,0.11433576999999501,-1.386157267333332
mp-1218359,SrAl3Ag,0.0,0.0,-0.29725167699999905
mp-978862,SrAlO3,0.0,0.050849522249998,-3.031678721000001
mp-978851,SrAsO3,0.0,0.24607856972222003,-2.2736955725
mp-1187146,SrAuO3,0.0,0.274543589999995,-1.420715157
mp-1189840,SrBO3,0.452399999999999,0.06246880724997501,-2.824387097333333
mp-1187143,SrBeO3,0.0,0.376971984999999,-2.186857816
mp-29164,SrBiO3,0.3106,0.0,-2.260618635000001
mp-28476,SrBiSe3,0.7976000000000001,0.0,-1.2956267539062511
mp-1218370,SrCO3,4.5332,0.0317049775,-2.6672573
mp-33746,SrCO3,4.2823,0.0361576455,-2.662804631999999
mp-38035,SrCO3,4.6569,0.0232246075,-2.6757376699999993
mp-3822,SrCO3,4.4416,0.0,-2.6989622775
mp-978842,SrCaO3,0.0,0.467312725999996,-2.177782510999999
mp-22428,SrCeO3,2.2817,0.008514477999996,-3.614131642999999
mp-1272815,SrCoO3,0.0,0.039565767854840006,-1.960253978499999
mp-1273854,SrCoO3,0.0,0.035315169354840005,-1.964504577
mp-1283849,SrCoO3,0.0,0.01828652335484,-1.981533223
mp-505766,SrCoO3,0.0,0.081854346354839,-1.9179654
mp-550781,SrCoO3,0.0,0.08751057585484101,-1.9123091705
mp-562466,SrCoO3,0.0,0.073374498354841,-1.926445247999999
mp-1325463,SrCrO3,0.0,0.19858051208035102,-2.445720254857144
mp-1372100,SrCrO3,0.0,0.16905102793749502,-2.4752497389999992
mp-20029,SrCrO3,0.0,0.07254508193749301,-2.5717556850000003
mp-752441,SrCrO3,0.0,0.08573069393749401,-2.5585700730000003
mp-755321,SrCrO3,0.0,0.096432393437494,-2.5478683735
mp-761337,SrCrO3,0.7210000000000001,0.05763595893749401,-2.586664808
mp-769855,SrCrO3,0.829399999999999,0.070220027437494,-2.5740807395000003
mp-781082,SrCrO3,0.5880000000000001,0.065288641651781,-2.579012125285714
mp-1076711,SrCuO3,0.0,0.008427793812503,-1.740167172999999
mp-1192969,SrCuO3,0.0,0.045928306479169005,-1.702666660333334
mp-29049,SrCuO3,0.0,0.042884268479169006,-1.705710698333334
mp-1187145,SrDyO3,0.0,0.25280565,-3.026185685333332
mp-1187147,SrErO3,0.0,0.222959852249998,-3.0835821230000002
mp-1100775,SrEuO3,0.0,0.32016034999998,-2.6788943740000013
mp-510624,SrFeO3,0.0,0.0,-2.222982896999998
mp-1080133,SrGa3Pd,0.0,0.0,-0.6143002545
mp-1068235,SrGe3Ir,0.0,0.0,-0.581427054000002
mp-978987,SrGe3Pd,0.0,0.0,-0.552342466999999
mp-1068239,SrGe3Pt,0.0,0.0,-0.6580639499999991
mp-1078860,SrGeAu3,0.0,0.0,-0.559157473999999
mp-1016999,SrGeO3,0.0,0.150044169333333,-2.593071166
mp-17464,SrGeO3,3.4179,0.0,-2.743115335333333
mp-554869,SrGeO3,3.3373,0.0018847388333320001,-2.7412305965
mp-555731,SrGeO3,3.0028,0.112676463333333,-2.630438872
mp-1207079,SrH3Pd,0.0,0.0,-0.515080370749999
mp-13108,SrHfO3,3.7304999999999993,0.032896416999999005,-3.779468506999999
mp-13109,SrHfO3,3.9893,0.001919986,-3.810444937999998
mp-3378,SrHfO3,4.1704,0.0,-3.812364923999999
mp-3721,SrHfO3,4.0578,0.0040905669999980005,-3.8082743569999993
mp-4551,SrHfO3,3.7226,0.032957558999999005,-3.779407364999999
mp-4673,SrHfO3,3.9535,0.0037482720000010005,-3.808616651999998
mp-550908,SrHfO3,3.6763999999999992,0.011285950000001,-3.801078973999998
mp-1208643,SrHfS3,1.4955999999999992,0.0,-2.074540924687499
mp-971975,SrHgO3,0.0,0.273016526999999,-1.3590512335000011
mp-971996,SrHoO3,0.0,0.23622259387499903,-3.054025573999998
mp-1218236,SrIn3Au,0.0,0.0,-0.41411597200000005
mp-1218256,SrIn3Hg,0.0,0.00018489744444400002,-0.2938979285
mp-972021,SrInO3,0.0,0.194183900499991,-2.1154600563333332
mp-1016848,SrIrO3,0.0,0.141754297999999,-1.8921271650000002
mp-1105160,SrIrO3,0.0,0.027674406000000002,-2.006207056999999
mp-1193907,SrIrO3,0.0,0.003468296333333,-2.030413166666667
mp-17097,SrIrO3,0.0,0.019301459999996003,-2.014580003000003
mp-24419,SrLiH3,1.8195000000000001,0.45778285749999903,-0.126509745583332
mp-1187183,SrLiO3,0.0,0.28795796100000104,-1.694797613666666
mp-571443,SrMgIn3,0.0,0.0028427609999980004,-0.292186542999998
mp-1187182,SrMgO3,0.0,0.22068589599999602,-2.317325252
mp-1017466,SrMnO3,0.0,0.049247349499999,-2.450037027586207
mp-1193101,SrMnO3,0.0,0.015045541833332001,-2.4842388352528753
mp-1218206,SrMnO3,0.0,0.0126189035,-2.486665473586206
mp-19001,SrMnO3,0.9027000000000001,0.003063650999999,-2.496220726086208
mp-559975,SrMnO3,0.0,0.0,-2.499284377086207
mp-1078716,SrMoO3,0.0,0.009092676000003,-2.587846040000001
mp-1187247,SrMoO3,0.0,0.040237730000004,-2.556700986
mp-1542758,SrMoO3,1.3088,0.0,-2.596938715999999
mp-18747,SrMoO3,0.0,0.084097525000004,-2.512841190999999
mp-10339,SrNbO3,0.0,0.007797432928578001,-3.180447969
mp-1173150,SrNbO3,0.0,0.009586572428577,-3.1786588295
mp-7006,SrNbO3,0.0,0.013476088928580002,-3.174769312999998
mp-1101333,SrNdO3,0.0,0.358035681749997,-2.8092064345
mp-1101421,SrNiO3,0.0,0.047980611499993005,-1.761940988499999
mp-1281591,SrNiO3,0.0,0.058825193499993,-1.751096406499999
mp-1291939,SrNiO3,0.0,0.052074288499992,-1.7578473115
mp-1299294,SrNiO3,0.0,0.053711680499993,-1.7562099195
mp-752649,SrNiO3,0.0,0.06995317499999301,-1.739968425
mp-762506,SrNiO3,0.0,0.045951716999993,-1.7639698830000001
mp-30805,SrNiSn3,0.0,0.0,-0.43511277900000206
mp-1105153,SrOsO3,0.0,0.06107738531818001,-2.1022043495
mp-867195,SrOsO3,0.0,0.09691866781818101,-2.066363066999999
mp-9788,SrPS3,3.1224,0.0,-1.309044782282737
mp-7198,SrPSe3,2.1432,0.0,-1.1281384455327381
mp-1187190,SrPdO3,0.0,0.07012186049999601,-1.677081801
mp-20464,SrPrO3,0.0,0.14508052237499702,-2.996023107833333
mp-1187202,SrPtO3,0.0,0.159764869749999,-1.700283456999999
mp-1207172,SrPuO3,0.0,0.090643798000012,-3.235445856749998
mp-989623,SrReN3,1.9969000000000001,0.0,-0.726170780000001
mp-1187226,SrReO3,0.0,0.126408216933336,-2.3999262475
mp-1017441,SrRhO3,0.0,0.09264819174998801,-1.928895577
mp-1206840,SrRhO3,0.0,0.030399611749989,-1.991144156999999
mp-1206846,SrRhO3,0.0,0.017568513749989002,-2.003975255
mp-1208626,SrRhO3,0.0,0.005810413749988,-2.015733355
mp-1079352,SrRuO3,0.0,0.043007939000001,-2.147603698
mp-1179112,SrRuO3,0.0,0.49663431550000103,-1.6939773215
mp-22390,SrRuO3,0.0,0.0,-2.190611637000002
mp-34212,SrRuO3,0.0,0.0036637429999970004,-2.1869478940000042
mp-4346,SrRuO3,0.0,0.041338998000001,-2.149272639
mp-4525,SrRuO3,0.0,0.006622184999997001,-2.183989452000004
mp-1187192,SrSbO3,0.0,0.132098440799997,-2.375606296999999
mp-1204655,SrSbSe3,0.35809999999999903,0.0,-1.243481970156249
mp-1187191,SrScO3,0.0,0.091257467249998,-3.1865535720000002
mp-3395,SrSeO3,3.7027,0.0,-2.31565746346875
mp-555098,SrSeO3,3.886199999999999,6.525950000035863e-05,-2.315592203968749
mp-1067925,SrSi3Au,0.0,0.013149417000001001,-0.36923481700000005
mp-1069139,SrSi3Ni,0.0,0.0,-0.43434290499999906
mp-1017439,SrSiO3,2.383099999999999,0.32427592999999905,-3.116950543
mp-18313,SrSiO3,4.3766,0.017019436333333002,-3.424207036666666
mp-3978,SrSiO3,4.6251,0.0,-3.441226473
mp-561547,SrSiO3,4.8212,0.036027445500000005,-3.4051990275
mp-30834,SrSn3Pd,0.0,0.0,-0.5791159990000041
mp-12866,SrSnO3,1.6118000000000001,0.003659023999998,-2.633699613500002
mp-12867,SrSnO3,1.5550000000000002,0.006706956999999,-2.630651680499999
mp-2879,SrSnO3,1.7365,0.0,-2.6373586375
mp-546973,SrSnO3,0.9698000000000001,0.047734773499999,-2.589623864000001
mp-1205419,SrSnS3,0.8335999999999991,0.0,-1.2687797256875
mp-1186755,SrTaO3,0.0,0.059606806506677004,-3.278887796466667
mp-21898,SrTbO3,0.0,0.121943571874999,-3.145615410333333
mp-989530,SrTcN3,0.5244,0.040815144499998006,-0.543638045249999
mp-989546,SrTcN3,0.0,0.019899409999998,-0.5645537797499991
mp-989586,SrTcN3,0.0,0.019907794999999003,-0.5645453947499981
mp-989627,SrTcN3,1.581799999999999,0.0,-0.584453189749999
mp-1079334,SrTcO3,0.0,0.055315276000001,-2.399653263499999
mp-1188414,SrTcO3,0.0,0.0,-2.454968539500001
mp-12631,SrTcO3,0.0,0.077098233,-2.3778703065
mp-1179315,SrTeO3,3.2315,0.003206168583333,-2.377819146416667
mp-1179320,SrTeO3,3.3726000000000003,0.0043323338333330005,-2.3766929811666673
mp-561385,SrTeO3,3.478899999999999,0.0023719034999990004,-2.378653411500001
mp-647158,SrTeO3,3.3579,0.006218151916667001,-2.374807163083333
mp-662523,SrTeO3,3.174,0.031557382666666,-2.349467932333334
mp-667421,SrTeO3,3.4208,0.0065543974999990005,-2.374470917500001
mp-972117,SrTeO3,3.6116,0.0,-2.381025315
mp-4651,SrTiO3,1.848799999999999,0.0,-3.551662291666667
mp-5229,SrTiO3,1.771999999999999,0.00047005399999900006,-3.5511922376666663
mp-551830,SrTiO3,1.786999999999999,8.474800000080054e-05,-3.551577543666666
mp-776018,SrTiO3,1.7362000000000002,0.039102471333333,-3.512559820333334
mp-1080529,SrTiS3,0.0,0.082437121000003,-1.839321146166665
mp-981367,SrTlO3,0.0,0.24066696549999203,-1.6242701456666682
mp-1186758,SrTmO3,0.0,0.20589536299999803,-3.119328557000001
mp-18717,SrVO3,0.0,0.039101676860283006,-2.878867755
mp-989513,SrWN3,1.2682,0.07413227512502,-0.807895963250001
mp-989625,SrWN3,1.1076,0.055517831125019006,-0.826510407249999
mp-1186764,SrWO3,0.0,0.19504557100000103,-2.455699439000001
mp-1186756,SrYbO3,0.0,0.271411767249997,-2.9767352482500034
mp-1217777,SrZnIn3,0.0,0.0,-0.290728675999999
mp-1186757,SrZnO3,0.0,0.16797229800000002,-1.871074826999999
mp-1020622,SrZrO3,3.168099999999999,0.017242586999996,-3.644416241500001
mp-1068742,SrZrO3,3.2609,0.048340725499997,-3.613318103
mp-1080575,SrZrO3,3.4652,0.004592438999996,-3.657066389500001
mp-3323,SrZrO3,3.214399999999999,0.05490891149999601,-3.606749917
mp-3626,SrZrO3,3.416,0.007183756499996001,-3.654475072000001
mp-4387,SrZrO3,3.6122,0.0,-3.661658828500002
mp-5076,SrZrO3,3.5667,0.009295326999996,-3.652363501500001
mp-557203,SrZrO3,3.542,0.054729959249996005,-3.606928869250001
mp-5193,SrZrS3,1.1777,0.006412831499997,-2.077791916499998
mp-558760,SrZrS3,0.551199999999999,0.0,-2.084204747999996
mp-541570,SrZrSe3,0.16690000000000002,0.027114558500002002,-1.8622276039375012
mp-1187189,TaAgO3,1.7306,0.045000392499996,-2.3922839567999983
mp-9890,TaAgO3,1.9156,0.031595417499996004,-2.405688931799999
mp-561242,TaAgS3,0.0,0.00020056400000000003,-0.9553398292999981
mp-5821,TaAgS3,0.0,0.0,-0.9555403932999991
mp-1208583,TaCl3O,3.0691,0.0,-2.282241472466665
mp-756050,TaCuO3,1.5612,0.033080159999997,-2.5028656634666673
mp-3102,TaCuS3,0.41800000000000004,0.0,-1.065123988466663
mp-8848,TaFeTe3,0.0,0.020059772925925,-0.510384490466665
mp-33753,TaHO3,2.9434,0.07708952375000201,-2.649505566216666
mp-1187260,TaInO3,0.0,0.178475823777782,-2.506883887799999
mp-1247469,TaMoN3,0.0,0.224364218800008,-0.6737603224666671
mp-1101316,TaOF3,2.7903000000000002,0.061258638571430005,-3.447142061466665
mp-677065,TaOF3,2.153299999999999,0.27946006137143,-3.228940638666667
mp-22087,TaRu3C,0.0,0.15355960599999802,-0.128625297466669
mp-8074,TaSnO3,0.0,0.324955825000008,-2.360063697466667
mp-676262,TaTlO3,0.9801000000000001,0.0,-2.684087633883337
mp-756933,TaTlO3,0.655999999999999,0.004274724750001,-2.679812909133335
mp-861873,TaTlO3,0.6811,0.10736485475000201,-2.576722779133334
mp-10795,TaTlS3,0.595799999999999,0.000669481153839,-1.086338705633336
mp-12027,TaTlSe3,0.2993,0.024487024333325003,-0.7410641909041371
mp-1246615,TaWN3,0.232999999999999,0.38517526985715306,-0.5487741643039581
mp-570822,Tb3AlC,0.0,0.0,-0.5037076540000011
mp-1018638,Tb3AlN,0.0,0.0,-1.07354821175
mp-1206878,Tb3GaC,0.0,0.0,-0.5723961980000011
mp-19769,Tb3InN,0.0,0.0,-1.190359023749999
mp-1217573,TbAl3Ag,0.0,0.00034698086666300003,-0.353569573666665
mp-4434,TbAlO3,5.598200000000001,0.009000524749999001,-3.739704172833333
mp-1217607,TbBO3,4.4297,0.0,-3.466789145166666
mp-3022,TbBPd3,0.0,0.11274995509091201,-0.654714329409088
mp-3869,TbBRh3,0.0,0.0,-0.7850072811666661
mp-863748,TbBS3,2.3293,0.037185812029998,-1.517185487666665
mp-1187310,TbBeO3,0.0,0.33177757837500105,-2.900455279333333
mp-1217576,TbBiTe3,1.038,0.027055498999999,-0.957503614000017
mp-755605,TbCO3,4.055400000000001,0.025822064125000002,-2.7611939808333332
mp-19802,TbCoO3,1.4208999999999992,0.0,-2.622154927833276
mp-1069044,TbCoSi3,0.0,0.0,-0.6233964993333321
mp-756124,TbCrO3,2.4854,0.0,-3.214648261833333
mp-1208345,TbCrSe3,0.113999999999999,0.032535153250005,-1.449469716239582
mp-1187321,TbCuO3,0.0,0.16570828950000102,-2.251320996333332
mp-756048,TbErO3,4.5065,0.088438408374999,-3.9311991768333323
mp-19853,TbFeO3,1.6263,6.255587500092474e-05,-2.844573657333333
mp-1199267,TbFeSb3,0.0,0.012157141749999,-0.575431305583332
mp-1217529,TbGa3Ni,0.0,0.0,-0.6423872340000001
mp-18462,TbGa3Os,0.0,0.0006495566666580001,-0.5664108360000001
mp-1104461,TbGa3Ru,0.0,0.0,-0.587124742499995
mp-1101339,TbGaO3,3.7138,0.106284670083333,-3.066421869833333
mp-756290,TbGaO3,3.9217999999999993,0.047180733583333,-3.125525806333333
mp-756224,TbGdO3,3.1586,0.094544135375,-3.844252297333332
mp-755740,TbHoO3,4.7786,0.095557411749999,-3.9093128473333323
mp-769263,TbInO3,2.911199999999999,0.05609104887500001,-2.9320331816666663
mp-754145,TbLuO3,4.9973,0.0662620235,-3.986720298666666
mp-1187347,TbMgO3,0.0,0.449121891375001,-2.757292313333333
mp-1232160,TbMgS3,0.2,0.35371523449999104,-1.547582853833332
mp-1232232,TbMgS3,0.0,0.27689464149999105,-1.6244034468333322
mp-1232315,TbMgSe3,0.0,0.30446056066666405,-1.426322423739583
mp-1232347,TbMgSe3,0.0,0.23432218433333002,-1.496460800072916
mp-1237963,TbMgSe3,0.0,0.34355375066666405,-1.387229233739583
mp-1188379,TbMnO3,0.9344999999999991,0.314236524500001,-2.716380401919539
mp-22055,TbMnO3,0.4016,0.0,-3.03061692641954
mp-1087235,TbNiGe3,0.0,0.0,-0.579707564333333
mp-1187352,TbNiO3,0.0,0.19866850399999902,-2.294719268333332
mp-755865,TbNiO3,0.0,0.0,-2.493387772333331
mp-770347,TbNiO3,0.0,0.041731725000000004,-2.451656047333332
mp-542103,TbRh3C,0.0,0.0,-0.49176561033333205
mp-5692,TbRhO3,0.8749000000000001,0.0,-2.575770184833334
mp-31119,TbScO3,4.4378,0.018404450750001,-3.9570524063333323
mp-1188262,TbScS3,1.7696,0.0,-2.2846173261874982
mp-1068588,TbSi3Ir,0.0,0.0,-0.794774811333332
mp-1068827,TbSi3Rh,0.0,0.0,-0.778442423333331
mp-756118,TbSmO3,4.7475000000000005,0.082701226000001,-3.839365544333334
mp-768409,TbTiO3,0.0,0.05596204799999,-3.628116425500001
mp-756762,TbTmO3,4.568899999999999,0.07975851762500001,-3.9563684708333353
mp-1217533,TbUTe3,0.0,0.013243563500004002,-1.416351945000002
mp-1187389,TbVO3,0.0,0.400170577,-2.891458178333335
mp-554811,TbVO3,1.439599999999999,0.0,-3.291628755333334
mp-555390,TcO3F,2.444499999999999,0.021290894375002003,-1.926119503999999
mp-1187400,TcSnO3,0.0,0.33065778574999805,-1.498840827
mp-29429,TeCF3,2.5075000000000003,0.333563522291665,-1.328688632958338
mp-1195796,TeHO3,2.2733,0.0,-1.384043778583333
mp-625630,TeHO3,2.1229,0.026162637999999003,-1.357881140583333
mp-625654,TeHO3,2.1525,0.032190362999999,-1.351853415583333
mp-625657,TeHO3,2.2213,0.026855483000000003,-1.357188295583333
mp-625856,TeHO3,2.0582,0.042925595749999004,-1.341118182833333
mp-625913,TeHO3,2.1809,0.033308287250000006,-1.350735491333333
mp-1217353,Th3SiGe,0.0,0.000882776999993,-0.720222298999999
mp-1206772,ThBRh3,0.0,0.0,-0.9264942364999961
mp-1187421,ThBeO3,2.696799999999999,0.40292563899999906,-3.458890785999999
mp-1068664,ThCoSi3,0.0,0.0,-0.6382942770000001
mp-1189441,ThCrS3,0.015799999999999002,0.019837774666671002,-1.7028352864999952
mp-1208150,ThCrSb3,0.0,0.029786435500007,-0.538006846000001
mp-1188731,ThCrSe3,0.054999999999999,0.026841786333317002,-1.470284058906248
mp-11778,ThMnSe3,0.0,0.0,-1.616431631334045
mp-22394,ThRu3C,0.0,0.0,-0.311079107
mp-1068869,ThSi3Ir,0.0,0.0,-0.861921389000002
mp-1070572,ThSi3Os,0.0,0.0,-0.703330792999997
mp-1070238,ThSi3Rh,0.0,0.0,-0.8305215969999971
mp-1068732,ThSi3Ru,0.0,0.0,-0.7473108139999991
mp-10732,ThTaN3,0.0766,0.231308497500002,-1.507574309216659
mp-1079374,ThTaN3,0.0,0.132509012499998,-1.606373794216665
mp-1105961,ThTaN3,0.34949999999999903,0.0,-1.7388828067166622
mp-1187536,ThTaN3,0.40130000000000005,0.023035757499997003,-1.715847049216665
mp-3271,Ti3AlC,0.0,0.0,-0.591599556999995
mp-10675,Ti3AlN,0.0,0.029710624666661002,-1.026473475749999
mp-1217183,Ti3CuSn,0.0,0.451904497800004,0.16957216179999302
mp-20325,Ti3InC,0.0,0.0,-0.542402516333332
mp-21233,Ti3InN,0.0,0.006211866000000001,-0.930242820333333
mp-760414,Ti3PdO,0.0,0.0,-1.454954431000001
mp-644483,Ti3SnH,0.0,0.0,-0.433976837749997
mp-4563,Ti3TlC,0.0,0.019165185666668,-0.515003204000001
mp-9964,Ti3TlN,0.0,0.036445006666667,-0.845159385416667
mp-1014257,Ti3ZnN,0.0,0.0,-0.9711554270000001
mp-1217033,TiAl3Ge,0.0,0.172040722999998,-0.146581511666666
mp-1248327,TiAlO3,0.0,0.23740372183333303,-3.127591599333334
mp-1341716,TiAlO3,0.0,0.26129570683333303,-3.103699614333334
mp-1405134,TiAlO3,0.0,0.2579223145,-3.107073006666667
mp-774520,TiAlO3,0.0,0.06604736950000101,-3.298947951666666
mp-9716,TiBO3,0.0,0.07640892018333201,-3.000503655499999
mp-1016846,TiCdO3,0.0,0.19823604300000003,-2.4732249276666662
mp-1179263,TiCdO3,1.4505,0.2200661435,-2.451394827166666
mp-1179551,TiCdO3,2.776399999999999,0.16593305600000002,-2.505527914666666
mp-13641,TiCdO3,2.9057,0.0,-2.671460970666666
mp-14550,TiCdO3,2.1213,0.042542629000000005,-2.628918341666666
mp-20940,TiCdO3,2.4636,0.039568167499999,-2.631892803166667
mp-5052,TiCdO3,2.4156,0.038744574000000004,-2.632716396666666
mp-1179381,TiCoO3,2.2549,0.129342192500002,-2.495839098666666
mp-19424,TiCoO3,0.0,0.003154708000002,-2.622026583166667
mp-755606,TiCrO3,0.4277,0.118891695166665,-2.774804165666667
mp-756083,TiCrO3,0.0,0.12372662583333101,-2.769969235
mp-1147748,TiCuO3,0.0,0.253246738500003,-2.2287045096666662
mp-1206985,TiFe3N,0.0,0.41883378199999804,-0.33961129966666503
mp-1179354,TiFeO3,2.590099999999999,0.075248778999998,-2.654464013666667
mp-1277107,TiFeO3,2.2487,0.0,-2.729712792666666
mp-19074,TiFeO3,1.6437,0.123118425999999,-2.606594366666667
mp-19270,TiFeO3,2.052199999999999,0.031773749999999004,-2.697939042666667
mp-19417,TiFeO3,2.7436,0.012041214999998,-2.717671577666666
mp-20073,TiFeO3,1.5848,0.07182635300000001,-2.657886439666666
mp-780260,TiGeO3,1.1348999999999991,0.06877411550000301,-2.683055854666666
mp-1105715,TiGeS3,0.32369999999999904,0.0,-1.181045385166666
mp-1016842,TiHgO3,0.0,0.23989173000000003,-2.118964534166668
mp-7607,TiHgO3,1.0936,0.10848425700000001,-2.250372007166668
mp-19082,TiMnO3,2.004899999999999,0.0,-2.9546040562528733
mp-19376,TiMnO3,1.7771999999999992,0.036319112499999,-2.918284943752874