material_id,formula,band_gap,e_hull,formation_energy
mp-1214689,CeIn3Pt,0.003199999999999,0.039835233166664,-0.5421049034999981
mp-1213810,CeLuO3,0.11220000000000001,0.05702418274999801,-3.888993242833333
mp-1092225,CeLuS3,0.0,0.005007427333346,-2.3854741760208302
mp-1205797,CeLuS3,0.0,0.145042693999997,-2.2454389093541782
mp-1232197,CeMgS3,0.402099999999999,0.261151989499995,-1.637528716499998
mp-1232253,CeMgS3,1.0618,0.075754950166661,-1.822925755833332
mp-1232259,CeMgSe3,0.15460000000000002,0.27035492374999903,-1.482840639406249
mp-1232360,CeMgSe3,0.875,0.10223967108333101,-1.6509558920729162
mp-1183706,CeMnO3,0.0,0.377304224000006,-2.7920294005862063
mp-1205748,CeNiGe3,0.0,0.010116814999994,-0.569993544999999
mp-776207,CeNiO3,1.011699999999999,0.095256723499996,-2.748283114499998
mp-866095,CeNiO3,0.0,0.44689075499999403,-2.396649083
mp-568237,CeNiSb3,0.0,0.0,-0.7079298269999981
mp-579812,CeNiSb3,0.0,0.0021607371666670003,-0.7057690898333301
mp-22519,CeRh3C,0.0,0.145730656499999,-0.38003273149999706
mp-1213826,CeRhO3,0.0,0.16923569100000202,-2.552756445499999
mp-1206127,CeRu3C,0.0,0.0,-0.24044842700000102
mp-1078616,CeSb3Pd,0.0,0.293896945,-0.47694487300001304
mp-38685,CeSbO3,0.0,0.45807500866667006,-2.482143209999999
mp-777413,CeScO3,0.0,0.013483153500001002,-3.8550088069999973
mp-20953,CeScS3,0.0,0.0,-2.315307633187498
mp-1068906,CeSi3Ir,0.0,0.0,-0.839946479999999
mp-1068364,CeSi3Os,0.0,0.0,-0.6550181099999941
mp-1207122,CeSi3Pt,0.0,0.0,-0.797867792
mp-1070394,CeSi3Rh,0.0,0.0,-0.8207631660000001
mp-13120,CeSi3Ru,0.0,0.0,-0.7225186839999961
mp-1204796,CeSiAs3,0.0,0.030787354999997,-0.739036460249999
mp-651900,CeSiP3,0.0,0.01987674450001,-0.76835725603571
mp-1207119,CeSiPt3,0.0,0.0,-1.054200257999992
mp-1198476,CeSn3Ru,0.0053,0.0,-0.519540024499998
mp-1183701,CeTaO3,0.0,0.35132431960606203,-3.053413314466667
mp-1205531,CeTiGe3,0.0,0.0,-0.669301494666663
mp-754524,CeTiO3,0.0,0.08380945625000101,-3.497674579666666
mp-1213788,CeTmO3,0.09479999999999901,0.06684380087500001,-3.8623182910000002
mp-541836,CeTmS3,0.0,0.012308965416679,-2.3872500379374992
mp-683985,CeTmS3,0.0,0.03147617675,-2.368082826604181
mp-18769,CeVO3,0.0,0.004009321799998001,-3.225797496499999
mp-22593,CeVO3,0.0,0.265832863299998,-2.963973955
mp-1226471,CeZnGa3,0.0,0.010980789363634,-0.43520165449999904
mp-753945,ClOF3,3.6609,0.0,-0.9172557804999991
mp-1245899,Co3SbN,0.0,0.126828176500001,0.08739242316667001
mp-20679,Co3SnC,0.0,0.069131596333331,0.030779726000000004
mp-1206910,CoAgF3,0.0,0.26776489000000203,-1.628311681333333
mp-1273356,CoAgO3,0.0,0.08221231949999501,-0.742011777333333
mp-752700,CoAgO3,0.0,0.46266377149999705,-0.36156032533333204
mp-753992,CoAgO3,0.0,0.09311912849999601,-0.731104968333333
mp-757083,CoBO3,0.1471,0.17638730172222403,-1.960627775833332
mp-765572,CoBO3,1.0669,0.199436286222223,-1.937578791333333
mp-1188346,CoBiO3,0.38780000000000003,0.08222879499999801,-1.376683918000001
mp-545522,CoBiO3,0.0,0.0,-1.4589127130000001
mp-1181984,CoCO3,1.5474,0.421501476999998,-1.244202776000001
mp-21434,CoCO3,0.0,0.0,-1.665704252999999
mp-22136,CoGeO3,0.0,0.020114759000003,-1.785913831
mp-550220,CoGeO3,1.5622999999999991,0.018763244500003003,-1.7872653455
mp-1246547,CoMoN3,0.0,0.384047340799998,0.13750442399999802
mp-1178424,CoNiO3,0.0,0.0,-1.136651947999999
mp-1272234,CoNiO3,0.7645000000000001,0.023617660999999002,-1.113034286999999
mp-1279343,CoNiO3,0.9607000000000001,0.000366710999998,-1.136285236999999
mp-676437,CoPS3,0.0,0.10317775235714201,-0.28869334206845204
mp-22616,CoSeO3,1.851999999999999,0.029257131125000002,-1.2813296369687501
mp-562826,CoSeO3,0.0,0.0,-1.31058676809375
mp-699575,CoSiO3,2.614699999999999,0.021916500583335,-2.45051476425
mp-752613,CoSnO3,0.9832000000000001,0.07626595650000201,-1.702570364999999
mp-761574,CoSnO3,0.0,0.034825417500002,-1.7440109039999991
mp-19113,CoTeO3,0.0,0.047210725500001,-1.4002619573333321
mp-1247505,CoWN3,0.1728,0.31609546050000104,0.037443002875002004
mp-1079324,Cr3AsC,0.0,0.06190623975000101,-0.07148977049999901
mp-22209,Cr3AsN,0.0,0.11051347949999901,-0.337746798499999
mp-3000,Cr3GaN,0.0,0.022125520833334,-0.303798610416666
mp-29804,Cr3GeC,0.0,0.034794967249998004,-0.059272533
mp-637918,Cr3GeN,0.0,0.019643323999996,-0.280031403750001
mp-505628,Cr3IrN,0.0,0.011030992666661,-0.35756736375000103
mp-1078492,Cr3PC,0.0,0.034978444500000004,-0.24340300492857003
mp-1080816,Cr3PN,0.0,0.012799570000002002,-0.48921505420237804
mp-10373,Cr3PdN,0.0,0.074729002666668,-0.258863485749992
mp-10374,Cr3PtN,0.0,0.108209408000004,-0.30180105374999705
mp-21244,Cr3RhN,0.0,0.026633222666667,-0.31229571708333004
mp-10376,Cr3SnN,0.0,0.12584810233333402,-0.17382662541666302
mp-19299,CrBO3,0.0,0.0,-2.620118576833333
mp-23456,CrBiO3,1.293699999999999,0.022682788000000002,-1.981474704000001
mp-546027,CrBiO3,1.9846999999999992,0.014705041000002,-1.9894524509999991
mp-559851,CrBiO3,1.790499999999999,0.011202689999999,-1.992954802000002
mp-1202206,CrCl3O,1.4763,0.145302104531248,-1.20360076025
mp-1206130,CrFe3N,0.0,0.48384087200000103,0.109825293
mp-1078458,CrFeO3,0.0,0.009988677999995001,-2.026850883
mp-1244905,CrFeO3,0.094199999999999,0.43025082212499405,-1.606588738875
mp-1245072,CrFeO3,0.47850000000000004,0.44737603662499603,-1.589463524374998
mp-1245144,CrFeO3,0.44070000000000004,0.40775341674999505,-1.6290861442499982
mp-1245147,CrFeO3,0.480199999999999,0.458440044249995,-1.578399516749999
mp-1245179,CrFeO3,0.42550000000000004,0.399016315749996,-1.6378232452499981
mp-1245204,CrFeO3,0.6733,0.381572794249995,-1.6552667667499992
mp-1245260,CrFeO3,0.387,0.40751713374999404,-1.629322427249999
mp-8829,CrGaSe3,0.0,0.0,-0.8617633184062491
mp-541449,CrGeTe3,0.0,0.0,-0.419505622000001
mp-28532,CrInBr3,0.0,0.04999581583333201,-0.9732109118333331
mp-756147,CrInO3,1.4521,0.051282904499999005,-2.129044673833333
mp-1226313,CrMoO3,0.0,0.444497286249998,-1.6484964329999992
mp-31703,CrOF3,2.1933,0.19245038049999802,-2.2395654355
mp-1101069,CrPSe3,0.0,0.041522398999999,-0.5443846303348211
mp-9130,CrSbS3,0.0,0.0,-0.7856886109999991
mp-15236,CrSbSe3,0.0,0.0,-0.6863518204062491
mp-3779,CrSiTe3,0.0,0.0,-0.438944071999998
mp-505212,Cs3AuO,1.3261,0.0,-0.866148916793104
mp-1205638,Cs3BrO,1.551499999999999,0.0,-1.5475638007931032
mp-562420,Cs3ClO,1.6127999999999991,0.001736146500001,-1.608732062293103
mp-1206444,Cs3IO,1.5285000000000002,0.0,-1.451217752793101
mp-1183923,CsAcO3,0.0,0.23001730649999702,-2.186816213431034
mp-1399321,CsAgBr3,0.0,0.0,-1.237065829264368
mp-1946459,CsAgBr3,0.0,0.002498219999999,-1.234567609264368
mp-998344,CsAgBr3,0.0,1.9793999999961894e-05,-1.237046035264368
mp-28610,CsAgCl3,0.0,0.0,-1.261134702499998
mp-561920,CsAgF3,0.0,0.0,-2.063023354
mp-1189272,CsAlTe3,1.3209,0.0,-0.8045202115000021
mp-1178465,CsAsO3,2.192,0.10051655749999401,-1.788139333431035
mp-776093,CsAsO3,2.8702,0.0,-1.888655890931032
mp-1112987,CsAuBr3,0.0,0.053059759000001004,-1.165763424931035
mp-569548,CsAuBr3,0.653,0.0,-1.218823183931034
mp-23026,CsAuCl3,0.0,0.07064334400000001,-1.123558720500003
mp-23484,CsAuCl3,0.5386000000000001,0.0,-1.194202064500001
mp-1112985,CsAuF3,0.0,0.104128091333336,-1.813374640666666
mp-28453,CsAuI3,0.7337,0.0,-0.94590951493103
mp-1185548,CsAuO3,0.0,0.44821452400000106,-0.459805178931034
mp-567913,CsAuSe3,1.0527,0.0,-0.580733772437503
mp-573358,CsBSe3,1.7167,0.0,-0.8540020896706191
mp-1096925,CsBaI3,3.6259,0.0,-1.922469316431036
mp-1183934,CsBaO3,0.0,0.48376279000000005,-1.308042148931034
mp-12262,CsBeF3,6.644299999999999,0.0,-3.404085375431035
mp-24341,CsBeH3,3.2298,0.0,-0.20423279668103503
mp-983578,CsBiO3,0.0,0.051505948428578,-1.362185876931035
mp-28873,CsBrO3,4.1681,0.0,-1.058973331931034
mp-30056,CsCaBr3,4.3923,0.0,-2.304029258931034
mp-1096927,CsCaCl3,5.3456,0.00029149000000000004,-2.5341286095
mp-1097916,CsCaCl3,5.3331,0.00011173200000000001,-2.534308367499997
mp-1206863,CsCaCl3,5.2834,0.0,-2.5344200994999992
mp-7104,CsCaF3,6.9005,0.0,-3.715830655999998
mp-644203,CsCaH3,3.1408,0.012165698000005,-0.49522195699999905
mp-1213688,CsCaI3,3.9817,0.010001139500001002,-1.8310032489310322
mp-2898987,CsCaI3,4.3729,0.021570151499999003,-1.819434236931033
mp-998333,CsCaI3,3.7149,0.020802681499998,-1.8202017069310341
mp-998428,CsCaI3,3.8335,0.0,-1.8410043884310312
mp-984240,CsCaO3,0.0,0.44561272699999904,-1.4831044389310342
mp-541899,CsCdBr3,2.901,0.0,-1.585478883931036
mp-570231,CsCdBr3,0.6968000000000001,0.032675227000002,-1.552803656931034
mp-568544,CsCdCl3,1.7462,0.002633955999998,-1.701237753500001
mp-619015,CsCdCl3,2.4918,0.0,-1.703871709499998
mp-8399,CsCdF3,3.2859,0.0,-2.695887164000001
mp-1183925,CsCdO3,0.0,0.454132825,-0.6906371229310341
mp-754202,CsClO3,5.1356,0.071620677625002,-1.147590872931034
mp-760386,CsClO3,5.465800000000001,0.068161465625002,-1.151050084931034
mp-779389,CsClO3,5.5682,0.06489169462500201,-1.154319855931034
mp-504708,CsCoCl3,0.0,0.0,-1.5149197285
mp-556943,CsCoF3,0.0,0.10126451008333001,-2.496041867597702
mp-27179,CsCrBr3,0.0,0.06670300933333001,-1.4501271429310352
mp-29616,CsCrCl3,0.15329999999999902,0.0,-1.721930033499998
mp-570326,CsCrCl3,0.0,0.07983543633332901,-1.642094597166664
mp-610955,CsCrCl3,0.0,0.080154486333327,-1.641775547166665
mp-27259,CsCrI3,0.0,0.05919781599999901,-1.032162969931034
mp-580597,CsCrI3,0.0,0.056569577499999,-1.034791208431034
mp-27336,CsCuBr3,0.37359999999999904,0.0,-1.249501644431033
mp-23032,CsCuCl3,0.5494,0.0,-1.332224125499999
mp-2456411,CsCuCl3,0.5132,0.0027453363333350004,-1.329478789166664
mp-567366,CsCuCl3,0.0,0.032544332333333,-1.2996797931666642
mp-675287,CsCuCl3,0.0,0.049222142333334,-1.2830019831666641
mp-1079040,CsDyBr3,0.0,0.09530201655555301,-1.9255185712643672
mp-505418,CsDyI3,0.0,0.10072529455555601,-1.471886077264367
mp-638685,CsEuBr3,0.9373999999999991,0.0,-2.291877774931035
mp-1068377,CsEuCl3,0.6374000000000001,0.010537762000009,-2.4895203925000002
mp-1213256,CsEuCl3,0.0,0.0,-2.5000581545000022
mp-8396,CsEuF3,0.0,0.015776123999998,-3.573640819000002
mp-1185550,CsEuO3,0.0,0.305617719499998,-1.9649679339310362
mp-1079847,CsFeBr3,0.0,0.12124925800000001,-1.245290631931034
mp-29400,CsFeCl3,0.0,0.0,-1.645267076931034
mp-2767575,CsFeF3,0.9184999999999991,0.032060795809512,-2.631734728333331
mp-555302,CsFeF3,3.424699999999999,0.007480315583329001,-2.741391856597701
mp-558694,CsFeF3,0.0,0.313360225249996,-2.435511946931034
mp-562726,CsGaS3,2.647199999999999,0.0,-0.9870333631875011
mp-510283,CsGaSe3,1.8736000000000002,0.0,-0.9375506284375
mp-984082,CsGdO3,0.0,0.22936890199999901,-2.266336368931034
mp-1068340,CsGeBr3,0.7856000000000001,0.0,-1.446721973931033
mp-570223,CsGeBr3,0.760699999999999,0.016845471999999,-1.429876501931033
mp-642739,CsGeBr3,1.4434,0.000624389999998,-1.446097583931035
mp-22988,CsGeCl3,2.153499999999999,0.0,-1.710205844931034
mp-28377,CsGeI3,0.9905,0.0,-1.069608593931036
mp-642690,CsGeI3,1.1901,0.008639774000002001,-1.060968819931034
mp-1194175,CsHgBr3,1.9018000000000002,0.003369847333327,-1.345134266097705
mp-27718,CsHgBr3,0.0,0.041522779999997005,-1.306981333431035
mp-1197432,CsHgCl3,0.9505,0.018041189333335,-1.5349833824310362
mp-1228834,CsHgCl3,0.0,0.033997679333335,-1.519026892431036
mp-1546519,CsHgCl3,1.0764,0.0071816991111130005,-1.545842872653258
mp-29845,CsHgCl3,2.0,0.0,-1.553024571764372
mp-570591,CsHgCl3,0.0,0.032840399333335005,-1.520184172431036
mp-675010,CsHgCl3,2.0663,0.079328347333335,-1.473696224431036
mp-561947,CsHgF3,0.7228,0.0,-2.246846599431038
mp-28295,CsIO3,3.091199999999999,0.0,-1.372726376931034
mp-1112338,CsInBr3,1.3782,0.0,-1.546272448264368
mp-2649045,CsInBr3,0.0,0.024389516999996003,-1.5218829312643671
mp-998323,CsInBr3,0.0,0.018994597999997,-1.5272778502643671
mp-1112961,CsInCl3,1.7756999999999992,0.014203413666621001,-1.643319195499998
mp-1112960,CsInF3,3.060899999999999,0.012654256500006001,-2.704585844999999
mp-998322,CsInF3,0.0,0.10640864399999801,-2.610831457500006
mp-1112643,CsInI3,0.056499999999999,0.021831326250001,-1.1496394762643671
mp-2011167,CsInI3,0.0,0.028444279000002,-1.0796855625
mp-998314,CsInI3,0.0,0.013654532249999001,-1.15781627026437
mp-998430,CsInI3,1.4872,0.017840497750004,-1.153630304764365
mp-984356,CsIrO3,0.0,0.217758143499997,-1.048420376931034
mp-1183918,CsLaO3,0.0,0.26124790074999904,-2.224715933931035
mp-29750,CsMgBr3,4.0445,0.0,-1.973241884931035
mp-23004,CsMgCl3,5.126099999999999,0.0,-2.313710576931034
mp-8401,CsMgF3,6.7028,0.05763061875000101,-3.427780151749997
mp-23751,CsMgH3,2.6161,0.0029730879999990004,-0.318075596681035
mp-571020,CsMgH3,2.9535,0.0,-0.32104868468103503
mp-29751,CsMgI3,3.1519999999999992,0.0,-1.488573451931037
mp-23048,CsMnBr3,0.0,0.0,-1.567758125517241
mp-23336,CsMnCl3,1.482899999999999,0.0,-1.9012585557298851
mp-558702,CsMnF3,3.4556,0.0,-2.987847402850575
mp-540609,CsMnI3,0.0,0.002209436333329,-1.133208356517244
mp-1183917,CsMoO3,0.0,0.37378243524999805,-1.7754282169310351
mp-1196533,CsNO3,3.276399999999999,0.021673316333334,-1.392881108931035
mp-22628,CsNO3,3.0919,0.004369773555554,-1.4101846517088141
mp-561851,CsNO3,3.2965,0.0,-1.41455442526437
mp-2029360,CsNaF3,0.0,0.054511113375003,-2.288266832
mp-2741979,CsNaF3,0.9959000000000001,0.002506903375003,-2.340271042
mp-998309,CsNaF3,0.0,0.012379128999999002,-2.390848141206896
mp-998609,CsNaF3,0.029499999999999003,0.0,-2.403227270206896
mp-1096944,CsNbO3,1.276199999999999,0.25129334674999804,-2.5807554569310343
mp-27556,CsNbO3,3.3517,0.0,-2.832048803681034
mp-1183922,CsNdO3,0.0,0.291359467249996,-2.147413578431035
mp-1080570,CsNiBr3,0.0,0.0,-1.296095052931037
mp-22950,CsNiCl3,0.8049000000000001,0.0,-1.5317842365
mp-1194078,CsNiF3,0.0,0.028610336333333004,-2.5366392286666652
mp-505492,CsNiF3,5.1948,0.007419191666667001,-2.557830373333331
mp-557772,CsNiF3,5.3618,0.0,-2.5652495650000002
mp-611601,CsNiF3,4.3878,0.09476461999999901,-2.470484945000001
mp-1183933,CsNpO3,0.0,0.08905128400001201,-2.981902242681035
mp-1183914,CsOsO3,0.0,0.241042682999998,-1.320445812931034
mp-1213226,CsPO3,5.422300000000001,0.0,-2.6739822593596063
mp-1213232,CsPO3,5.0865,0.013136007499997,-2.660846251859609
mp-504838,CsPS3,1.9062000000000001,0.0,-0.833033696282736
mp-1183920,CsPaO3,2.972999999999999,0.0,-3.457622890931035
mp-998306,CsPdBr3,0.0,0.0018728939999970002,-1.235675262931034
mp-998307,CsPdBr3,0.0,0.0018138419999970002,-1.235734314931034
mp-1147710,CsPdCl3,0.0,0.052206693499995,-1.224252413000005
mp-29882,CsPdCl3,1.4655,0.007462125500000001,-1.268996981
mp-1207302,CsPdF3,0.0,0.073591717999997,-2.019031868999997
mp-1183913,CsPdO3,0.0,0.238677719,-0.6875276629310351
mp-1183919,CsPrO3,0.0,0.290924312374997,-2.121710247264368
mp-1213235,CsPtBr3,0.0,0.254459913999998,-1.014211876931034
mp-2647156,CsPuO3,0.0,0.08095252200000701,-2.807718800681032
mp-1183971,CsRuO3,0.0,0.378263059000004,-1.267780486931035
mp-1068320,CsSO3,0.4314,0.18743076050000101,-1.884616914431034
mp-561681,CsSO3,5.111499999999999,0.0,-2.072047674931036
mp-1185561,CsSbO3,0.0,0.3255781875,-1.614402738931034
mp-1213644,CsScBr3,0.0,0.013903533333331,-2.010450238931035
mp-998308,CsScBr3,0.0,0.09761277833333101,-1.926740993931034
mp-998435,CsScBr3,0.0,0.083851823833332,-1.940501948431034
mp-27359,CsScCl3,0.0,0.01003370666667,-2.2092879565
mp-1206489,CsScI3,0.0,0.0,-1.5445554889310351
mp-1944812,CsSeBr3,0.0,0.038470766999999004,-0.8475140563124991
mp-2014596,CsSeBr3,1.833,0.0,-0.8859848233125001
mp-998413,CsSeBr3,1.2544,0.039469538890624004,-1.116294989399784
mp-998415,CsSeBr3,0.0,0.036261282890623005,-1.119503245399785
mp-1147745,CsSiI3,0.8319999999999991,0.105111749333334,-0.9368107229310341
mp-570957,CsSiTe3,1.261299999999999,0.0,-0.580539921999999
mp-1213166,CsSmBr3,0.0,0.088015147833331,-1.9572002004310352
mp-567939,CsSmCl3,0.0,0.116181794000002,-2.176575867833352
mp-1205876,CsSmI3,0.0,0.059091279999999004,-1.5283551929310342
mp-1184022,CsSmO3,0.0,0.292566048624998,-2.186409559931035
mp-1247749,CsSnBr3,0.9682000000000001,0.0,-1.572084271431037
mp-27214,CsSnBr3,0.5984,0.011195139500000001,-1.560889131931036
mp-1070375,CsSnCl3,0.9786999999999991,0.022686821500000003,-1.554896451500002
mp-27394,CsSnCl3,2.9154,0.0,-1.577583273000002
mp-1105915,CsSnF3,3.7852,0.0,-2.779154719431035
mp-2758979,CsSnF3,4.1665,0.0034366029999990002,-2.675741521
mp-998298,CsSnF3,3.099,0.026475629500001003,-2.752679089931034
mp-998457,CsSnF3,3.8280000000000003,0.013566900500001,-2.7655878189310332
mp-27381,CsSnI3,2.0632,0.003249338499999,-1.178286981431034
mp-568570,CsSnI3,0.617499999999999,0.011059161000002002,-1.170477158931032
mp-614013,CsSnI3,0.449999999999999,0.0,-1.181536319931034
mp-616378,CsSnI3,0.5537000000000001,0.011843993999996002,-1.1696923259310381
mp-984745,CsSnO3,0.0,0.275893913,-1.528053325931034
mp-561710,CsSnS3,1.6557,0.0,-0.8394699596875
mp-1542038,CsSnSe3,1.189599999999999,0.0,-0.9688896639924571
mp-613162,CsSnSe3,1.0499,0.003953938999998,-0.8075934474375001
mp-1213104,CsSrBr3,4.5563,0.0,-2.347495262931036
mp-998297,CsSrBr3,4.1683,0.021612655999998003,-2.325882606931037
mp-998433,CsSrBr3,4.5637,0.0022995229999990003,-2.345195739931037
mp-1080233,CsSrCl3,5.0049,0.015167955999999,-2.525474383499999
mp-1213084,CsSrCl3,5.3123000000000005,0.0,-2.540642339499999
mp-1213642,CsSrCl3,4.970000000000001,0.014977663999999,-2.525664675499999
mp-1213645,CsSrCl3,5.0045,0.002952912999999,-2.5376894265
mp-998561,CsSrCl3,5.2868,0.004261983999999001,-2.5363803555
mp-8397,CsSrF3,6.1846,0.019347563999998003,-3.639248854000001
mp-1080232,CsSrI3,3.959,0.0,-1.890947640931032
mp-998417,CsSrI3,3.6132,0.031693017999999004,-1.859254622931034
mp-1183972,CsSrO3,0.0,0.45468993300000105,-1.3818688869310352
mp-1185552,CsTaO3,1.862699999999999,0.253415689863635,-2.7759975843977003
mp-1225870,CsTaS3,0.515099999999999,0.0,-1.4348068958976912
mp-1225880,CsTaSe3,0.121299999999999,0.006590421999998,-1.168802641904167
mp-685607,CsTaSe3,0.0868,0.0,-1.175393063904167
mp-1228798,CsTaTe3,0.0,0.0,-0.842346070397699
mp-1185551,CsTbO3,0.0,0.292340615375,-2.246749296264368
mp-1183976,CsTeO3,0.0,0.302410398611113,-1.4237870662643681
mp-9462,CsTeSe3,0.9842000000000001,0.0,-0.7501604921706181
mp-1183997,CsThO3,0.0,0.146533561999999,-2.963829882931033
mp-22962,CsTiBr3,0.0,0.0,-1.7109803175976999
mp-28283,CsTiCl3,0.0,0.0,-1.946154178833333
mp-567698,CsTiI3,0.0,0.009522494444446,-1.2629454575977
mp-1183977,CsTiO3,0.0,0.355658736000005,-2.358746077597701
mp-1080226,CsTlBr3,0.0,0.012869425749999,-1.441372555597703
mp-1112177,CsTlBr3,0.998499999999999,0.012241769749997002,-1.442000211597704
mp-1950530,CsTlBr3,0.0,0.022752478750007,-1.271398984500001
mp-1080231,CsTlCl3,0.0,0.026746925999999,-1.6519854425977032
mp-1112176,CsTlCl3,1.2584,0.00036208099999900003,-1.678370287597702
mp-1395579,CsTlCl3,0.0,0.026829407999999003,-1.651902960597703
mp-1078203,CsTlF3,2.1858,0.0,-2.419469716
mp-2695837,CsTlF3,0.0,0.063382404000002,-2.356087311999999
mp-998234,CsTlF3,0.0,0.064821944000001,-2.354647771999998
mp-998235,CsTlF3,0.0,0.06426403600000001,-2.35520568
mp-1112542,CsTlI3,0.0,0.060254679749999006,-1.077440165597703
mp-1185544,CsTlO3,0.0,0.36811675650000303,-0.7549294995977021
mp-1206103,CsTmBr3,0.0,0.12444951466666201,-1.885503000931036
mp-579768,CsTmCl3,0.0,0.201543684777782,-2.103063920666682
mp-1207081,CsTmH3,0.0,0.318203782747124,-0.260829814502875
mp-1213177,CsTmI3,0.0,0.203747275666662,-1.414454532931036
mp-2647024,CsUBr3,0.0,0.285750127000001,-1.4875308449310332
mp-865424,CsUO3,0.45710000000000006,0.021469604000012,-3.216834692931034
mp-23038,CsVBr3,0.6528,0.0,-1.582757883931035
mp-22977,CsVCl3,0.48349999999999904,0.0,-1.913989785499998
mp-22991,CsVI3,0.597299999999999,0.0,-1.140282601931036
mp-504651,CsVO3,3.1105,0.0,-2.415557575431035
mp-568005,CsYbBr3,4.3382,0.14528549966666301,-1.8053148135000012
mp-1070599,CsYbCl3,5.3324,0.189163071916663,-2.106338284499998
mp-8398,CsYbF3,7.0604,0.414283702500004,-3.205172131
mp-1206323,CsYbH3,2.9265,0.319705314,-0.259172890249999
mp-1185564,CsYbO3,0.0,0.43763858875000106,-2.104876888250001
mp-1206517,Cu3PdN,0.0,0.116097426999999,0.036469496142856
mp-1207194,Cu3RhN,0.0,0.253803012999998,0.253803012999998
mp-1181705,Cu3SnAu,0.0,0.177989456499998,0.104271397499999